 DBCSR| CPU Multiplication driver                                           XSMM (U)
 DBCSR| Multrec recursion limit                                              512 (U)
 DBCSR| Multiplication stack size                                           1000 (D)
 DBCSR| Maximum elements for images                                    UNLIMITED (U)
 DBCSR| Multiplicative factor virtual images                                   1 (U)
 DBCSR| Use multiplication densification                                       T (D)
 DBCSR| Multiplication size stacks                                             3 (U)
 DBCSR| Use memory pool for CPU allocation                                     F (U)
 DBCSR| Number of 3D layers                                               SINGLE (U)
 DBCSR| Use MPI memory allocation                                              F (U)
 DBCSR| Use RMA algorithm                                                      F (U)
 DBCSR| Use Communication thread                                               T (U)
 DBCSR| Communication thread load                                             79 (D)
 DBCSR| MPI: My process id                                                     0
 DBCSR| MPI: Number of processes                                              16
 DBCSR| OMP: Current number of threads                                         3
 DBCSR| OMP: Max number of threads                                             3
 DBCSR| Split modifier for TAS multiplication algorithm                  1.0E+00 (U)


  **** **** ******  **  PROGRAM STARTED AT               2024-12-02 15:53:52.573
 ***** ** ***  *** **   PROGRAM STARTED ON                          i01r03c04s07
 **    ****   ******    PROGRAM STARTED BY                               di75qec
 ***** **    ** ** **   PROGRAM PROCESS ID                                690710
  **** **  *******  **  PROGRAM STARTED IN /hppfs/scratch/09/di75qec/Hexatriene_
                                           scf.4142580

 CP2K| version string:                 CP2K version 2024.3 (Development Version)
 CP2K| source code revision number:                                  git:29c2adf
 CP2K| cp2kflags: omp libint fftw3 libxc parallel scalapack xsmm max_contr=4    
 CP2K| is freely available from                            https://www.cp2k.org/
 CP2K| Program compiled at                       Thu 21 Nov 2024 04:40:02 PM CET
 CP2K| Program compiled on                                               login03
 CP2K| Program compiled for                                        Supermuc-foss
 CP2K| Data directory path               /dss/dsshome1/09/di75qec/CP2K-foss/data
 CP2K| Input file name                                                   scf.inp

 GLOBAL| Force Environment number                                              1
 GLOBAL| Basis set file name                                         aug-cc-pvdz
 GLOBAL| Potential file name                                      ALL_POTENTIALS
 GLOBAL| MM Potential file name                                     MM_POTENTIAL
 GLOBAL| Coordinate file name                                          coord.xyz
 GLOBAL| Method name                                                        CP2K
 GLOBAL| Project name                                                 Hexatriene
 GLOBAL| Run type                                                 RT_PROPAGATION
 GLOBAL| FFT library                                                       FFTW3
 GLOBAL| Diagonalization library                                       ScaLAPACK
 GLOBAL| DGEMM library                                                      BLAS
 GLOBAL| Orthonormality check for eigenvectors                          DISABLED
 GLOBAL| Matrix multiplication library                                 ScaLAPACK
 GLOBAL| All-to-all communication in single precision                          F
 GLOBAL| FFTs using library dependent lengths                                  F
 GLOBAL| Grid backend                                                       AUTO
 GLOBAL| Global print level                                               MEDIUM
 GLOBAL| MPI I/O enabled                                                       T
 GLOBAL| Total number of message passing processes                            16
 GLOBAL| Number of threads for this process                                    3
 GLOBAL| This output is from process                                           0
 GLOBAL| Stack size for threads created by OpenMP (OMP_STACKSIZE)        default
 GLOBAL| CPU model name             Intel(R) Xeon(R) Platinum 8174 CPU @ 3.10GHz
 GLOBAL| CPUID                                                              1003
 GLOBAL| Compiled for CPUID                                                    0

 *** HINT in environment.F:921 :: The compiler target flags (generic) used ***
 *** to build this binary cannot exploit all extensions of this CPU model  ***
 *** (x86_avx512). Consider compiler target flags as part of FCFLAGS and   ***
 *** CFLAGS (ARCH file).                                                   ***


 MEMORY| system memory details [Kb]
 MEMORY|                        rank 0           min           max       average
 MEMORY| MemTotal             98436664      98436664      98436664      98436664
 MEMORY| MemFree              84181948      84181948      84181948      84181948
 MEMORY| Buffers                     0             0             0             0
 MEMORY| Cached                2356620       2356620       2356620       2356620
 MEMORY| Slab                  1165908       1165908       1165908       1165908
 MEMORY| SReclaimable           266784        266784        266784        266784
 MEMORY| MemLikelyFree        86805352      86805352      86805352      86805352


 *** Fundamental physical constants (SI units) ***

 *** Literature: B. J. Mohr and B. N. Taylor,
 ***             CODATA recommended values of the fundamental physical
 ***             constants: 2006, Web Version 5.1
 ***             http://physics.nist.gov/constants

 Speed of light in vacuum [m/s]                             2.99792458000000E+08
 Magnetic constant or permeability of vacuum [N/A**2]       1.25663706143592E-06
 Electric constant or permittivity of vacuum [F/m]          8.85418781762039E-12
 Planck constant (h) [J*s]                                  6.62606896000000E-34
 Planck constant (h-bar) [J*s]                              1.05457162825177E-34
 Elementary charge [C]                                      1.60217648700000E-19
 Electron mass [kg]                                         9.10938215000000E-31
 Electron g factor [ ]                                     -2.00231930436220E+00
 Proton mass [kg]                                           1.67262163700000E-27
 Fine-structure constant                                    7.29735253760000E-03
 Rydberg constant [1/m]                                     1.09737315685270E+07
 Avogadro constant [1/mol]                                  6.02214179000000E+23
 Boltzmann constant [J/K]                                   1.38065040000000E-23
 Atomic mass unit [kg]                                      1.66053878200000E-27
 Bohr radius [m]                                            5.29177208590000E-11

 *** Conversion factors ***

 [u] -> [a.u.]                                              1.82288848426455E+03
 [Angstrom] -> [Bohr] = [a.u.]                              1.88972613288564E+00
 [a.u.] = [Bohr] -> [Angstrom]                              5.29177208590000E-01
 [a.u.] -> [s]                                              2.41888432650478E-17
 [a.u.] -> [fs]                                             2.41888432650478E-02
 [a.u.] -> [J]                                              4.35974393937059E-18
 [a.u.] -> [N]                                              8.23872205491840E-08
 [a.u.] -> [K]                                              3.15774647902944E+05
 [a.u.] -> [kJ/mol]                                         2.62549961709828E+03
 [a.u.] -> [kcal/mol]                                       6.27509468713739E+02
 [a.u.] -> [Pa]                                             2.94210107994716E+13
 [a.u.] -> [bar]                                            2.94210107994716E+08
 [a.u.] -> [atm]                                            2.90362800883016E+08
 [a.u.] -> [eV]                                             2.72113838565563E+01
 [a.u.] -> [Hz]                                             6.57968392072181E+15
 [a.u.] -> [1/cm] (wave numbers)                            2.19474631370540E+05
 [a.u./Bohr**2] -> [1/cm]                                   5.14048714338585E+03
 

 CELL_TOP| Volume [angstrom^3]:                                      8000.000000
 CELL_TOP| Vector a [angstrom    20.000     0.000     0.000   |a| =    20.000000
 CELL_TOP| Vector b [angstrom     0.000    20.000     0.000   |b| =    20.000000
 CELL_TOP| Vector c [angstrom     0.000     0.000    20.000   |c| =    20.000000
 CELL_TOP| Angle (b,c), alpha [degree]:                                90.000000
 CELL_TOP| Angle (a,c), beta  [degree]:                                90.000000
 CELL_TOP| Angle (a,b), gamma [degree]:                                90.000000
 CELL_TOP| Numerically orthorhombic:                                         YES
 CELL_TOP| Periodicity                                                      NONE

 GENERATE|  Preliminary Number of Bonds generated:                             0
 GENERATE|  Achieved consistency in connectivity generation.

 CELL| Volume [angstrom^3]:                                          8000.000000
 CELL| Vector a [angstrom]:      20.000     0.000     0.000   |a| =    20.000000
 CELL| Vector b [angstrom]:       0.000    20.000     0.000   |b| =    20.000000
 CELL| Vector c [angstrom]:       0.000     0.000    20.000   |c| =    20.000000
 CELL| Angle (b,c), alpha [degree]:                                    90.000000
 CELL| Angle (a,c), beta  [degree]:                                    90.000000
 CELL| Angle (a,b), gamma [degree]:                                    90.000000
 CELL| Numerically orthorhombic:                                             YES
 CELL| Periodicity                                                          NONE

 CELL_REF| Volume [angstrom^3]:                                      8000.000000
 CELL_REF| Vector a [angstrom    20.000     0.000     0.000   |a| =    20.000000
 CELL_REF| Vector b [angstrom     0.000    20.000     0.000   |b| =    20.000000
 CELL_REF| Vector c [angstrom     0.000     0.000    20.000   |c| =    20.000000
 CELL_REF| Angle (b,c), alpha [degree]:                                90.000000
 CELL_REF| Angle (a,c), beta  [degree]:                                90.000000
 CELL_REF| Angle (a,b), gamma [degree]:                                90.000000
 CELL_REF| Numerically orthorhombic:                                         YES
 CELL_REF| Periodicity                                                      NONE

 *******************************************************************************
 *******************************************************************************
 **                                                                           **
 **     #####                         ##              ##                      **
 **    ##   ##            ##          ##              ##                      **
 **   ##     ##                       ##            ######                    **
 **   ##     ##  ##   ##  ##   #####  ##  ##   ####   ##    #####    #####    **
 **   ##     ##  ##   ##  ##  ##      ## ##   ##      ##   ##   ##  ##   ##   **
 **   ##  ## ##  ##   ##  ##  ##      ####     ###    ##   ######   ######    **
 **    ##  ###   ##   ##  ##  ##      ## ##      ##   ##   ##       ##        **
 **     #######   #####   ##   #####  ##  ##  ####    ##    #####   ##        **
 **           ##                                                    ##        **
 **                                                                           **
 **                                                ... make the atoms dance   **
 **                                                                           **
 **            Copyright (C) by CP2K developers group (2000-2024)             **
 **                      J. Chem. Phys. 152, 194103 (2020)                    **
 **                                                                           **
 *******************************************************************************

 DFT| Spin restricted Kohn-Sham (RKS) calculation                            RKS
 DFT| Multiplicity                                                             1
 DFT| Number of spin states                                                    1
 DFT| Charge                                                                   0
 DFT| Self-interaction correction (SIC)                                       NO
 DFT| Cutoffs: density                                              1.000000E-10
 DFT|          gradient                                             1.000000E-10
 DFT|          tau                                                  1.000000E-10
 DFT|          cutoff_smoothing_range                               0.000000E+00
 DFT| XC density smoothing                                                  NONE
 DFT| XC derivatives                                                          PW

 FUNCTIONAL| PBE:
 FUNCTIONAL| J.P.Perdew, K.Burke, M.Ernzerhof, Phys. Rev. Letter, vol. 77, n 18,
 FUNCTIONAL|  pp. 3865-3868, (1996)sx=0.750sc=1.000{spin unpolarized}           


 QS| Method:                                                                GAPW
 QS| Density plane wave grid type                        NON-SPHERICAL FULLSPACE
 QS| Number of grid levels:                                                    4
 QS| Density cutoff [a.u.]:                                                300.0
 QS| Multi grid cutoff [a.u.]: 1) grid level                               300.0
 QS|                           2) grid level                               100.0
 QS|                           3) grid level                                33.3
 QS|                           4) grid level                                11.1
 QS| Grid level progression factor:                                          3.0
 QS| Relative density cutoff [a.u.]:                                        30.0
 QS| Interaction thresholds: eps_pgf_orb:                                1.0E-05
 QS|                         eps_filter_matrix:                          0.0E+00
 QS|                         eps_core_charge:                            1.0E-12
 QS|                         eps_rho_gspace:                             1.0E-10
 QS|                         eps_rho_rspace:                             1.0E-10
 QS|                         eps_gvg_rspace:                             1.0E-05
 QS|                         eps_ppl:                                    1.0E-02
 QS|                         eps_ppnl:                                   1.0E-07
 QS| GAPW|      One center basis from orbital basis primitives
 QS| GAPW|                   eps_fit:                                    1.0E-04
 QS| GAPW|                   eps_iso:                                    1.0E-12
 QS| GAPW|                   eps_svd:                                    1.0E-08
 QS| GAPW|                   eps_cpc:                                    1.0E-10
 QS| GAPW|   atom-r-grid: quadrature:                                     GC_LOG
 QS| GAPW|      atom-s-grid:  max l :                                          4
 QS| GAPW|      max_l_rho0 :                                                   2


 ATOMIC KIND INFORMATION

  1. Atomic kind: H                                     Number of atoms:       8

     Orbital Basis Set                                               aug-cc-pvdz

       Number of orbital shell sets:                                           4
       Number of orbital shells:                                               5
       Number of primitive Cartesian functions:                                7
       Number of Cartesian basis functions:                                    9
       Number of spherical basis functions:                                    9
       Norm type:                                                              2

       Normalised Cartesian orbitals:

                        Set   Shell   Orbital            Exponent    Coefficient

                          1       1    1s               13.010000       0.096107
                                                         1.962000       0.163020
                                                         0.444600       0.185545
                                                         0.122000       0.073744

                          1       2    2s               13.010000       0.000000
                                                         1.962000       0.000000
                                                         0.444600       0.000000
                                                         0.122000       0.147123

                          2       1    1s                0.029740       0.051041

                          3       1    1px               0.727000       0.956881
                          3       1    1py               0.727000       0.956881
                          3       1    1pz               0.727000       0.956881

                          4       1    1px               0.141000       0.123158
                          4       1    1py               0.141000       0.123158
                          4       1    1pz               0.141000       0.123158

     RI Auxiliary Basis Set                                    aug-cc-pvdz-rifit

       Number of orbital shell sets:                                           9
       Number of orbital shells:                                               9
       Number of primitive Cartesian functions:                                9
       Number of Cartesian basis functions:                                   25
       Number of spherical basis functions:                                   23
       Norm type:                                                              2

       Normalised Cartesian orbitals:

                        Set   Shell   Orbital            Exponent    Coefficient

                          1       1    1s                5.115890       2.424381

                          2       1    1s                1.142965       0.787834

                          3       1    1s                0.291662       0.282859

                          4       1    1s                0.112720       0.138647

                          5       1    1px               1.914964       3.211004
                          5       1    1py               1.914964       3.211004
                          5       1    1pz               1.914964       3.211004

                          6       1    1px               0.986401       1.401222
                          6       1    1py               0.986401       1.401222
                          6       1    1pz               0.986401       1.401222

                          7       1    1px               0.285860       0.297942
                          7       1    1py               0.285860       0.297942
                          7       1    1pz               0.285860       0.297942

                          8       1    1dx2              1.172083       2.173136
                          8       1    1dxy              1.172083       3.763982
                          8       1    1dxz              1.172083       3.763982
                          8       1    1dy2              1.172083       2.173136
                          8       1    1dyz              1.172083       3.763982
                          8       1    1dz2              1.172083       2.173136

                          9       1    1dx2              0.303821       0.204640
                          9       1    1dxy              0.303821       0.354446
                          9       1    1dxz              0.303821       0.354446
                          9       1    1dy2              0.303821       0.204640
                          9       1    1dyz              0.303821       0.354446
                          9       1    1dz2              0.303821       0.204640

       Atomic covalent radius [Angstrom]:                                  0.320

       Atomic van der Waals radius [Angstrom]:                             1.090

     The atoms of this atomic kind are PAW atoms (GAPW):
       Hard Gaussian function radius:                                      1.200
       Rho0 radius:                                                        1.200
       Maximum GTO radius used for PAW projector construction:            24.566

     GAPW Soft Basis Set                                        aug-cc-pvdz_soft

       Number of orbital shell sets:                                           4
       Number of orbital shells:                                               5
       Number of primitive Cartesian functions:                                6
       Number of Cartesian basis functions:                                    9
       Number of spherical basis functions:                                    9
       Norm type:                                                              2

       Normalised Cartesian orbitals:

                        Set   Shell   Orbital            Exponent    Coefficient

                          1       1    1s                1.962000       0.163020
                                                         0.444600       0.185545
                                                         0.122000       0.073744

                          1       2    2s                1.962000       0.000000
                                                         0.444600       0.000000
                                                         0.122000       0.147123

                          2       1    1s                0.029740       0.051041

                          3       1    1px               0.727000       0.956881
                          3       1    1py               0.727000       0.956881
                          3       1    1pz               0.727000       0.956881

                          4       1    1px               0.141000       0.123158
                          4       1    1py               0.141000       0.123158
                          4       1    1pz               0.141000       0.123158

     AE Potential information for                                            ALL

       Description:                                       All-electron potential
                                          Krack, Parrinello, PCCP 2, 2105 (2000)

       Gaussian exponent of the core charge distribution:              12.500000
       Electronic configuration (s p d ...):                           1   0   0

  2. Atomic kind: C                                     Number of atoms:       6

     Orbital Basis Set                                               aug-cc-pvdz

       Number of orbital shell sets:                                           6
       Number of orbital shells:                                               9
       Number of primitive Cartesian functions:                               17
       Number of Cartesian basis functions:                                   25
       Number of spherical basis functions:                                   23
       Norm type:                                                              2

       Normalised Cartesian orbitals:

                        Set   Shell   Orbital            Exponent    Coefficient

                          1       1    1s             6665.000000       0.363803
                                                      1000.000000       0.675392
                                                       228.000000       1.132301
                                                        64.710000       1.654004
                                                        21.060000       1.924978
                                                         7.495000       1.448149
                                                         2.797000       0.439427
                                                         0.521500       0.006650
                                                         0.159600      -0.000574

                          1       2    2s             6665.000000      -0.076756
                                                      1000.000000      -0.146257
                                                       228.000000      -0.239407
                                                        64.710000      -0.379069
                                                        21.060000      -0.448104
                                                         7.495000      -0.484201
                                                         2.797000      -0.196168
                                                         0.521500       0.238162
                                                         0.159600       0.104468

                          1       3    3s             6665.000000       0.000000
                                                      1000.000000       0.000000
                                                       228.000000       0.000000
                                                        64.710000       0.000000
                                                        21.060000       0.000000
                                                         7.495000       0.000000
                                                         2.797000       0.000000
                                                         0.521500       0.000000
                                                         0.159600       0.179964

                          2       1    1s                0.046900       0.071827

                          3       1    1px               9.439000       0.898722
                                                         2.002000       0.711071
                                                         0.545600       0.339917
                                                         0.151700       0.063270
                          3       1    1py               9.439000       0.898722
                                                         2.002000       0.711071
                                                         0.545600       0.339917
                                                         0.151700       0.063270
                          3       1    1pz               9.439000       0.898722
                                                         2.002000       0.711071
                                                         0.545600       0.339917
                                                         0.151700       0.063270

                          3       2    2px               9.439000       0.000000
                                                         2.002000       0.000000
                                                         0.545600       0.000000
                                                         0.151700       0.134950
                          3       2    2py               9.439000       0.000000
                                                         2.002000       0.000000
                                                         0.545600       0.000000
                                                         0.151700       0.134950
                          3       2    2pz               9.439000       0.000000
                                                         2.002000       0.000000
                                                         0.545600       0.000000
                                                         0.151700       0.134950

                          4       1    1px               0.040410       0.025826
                          4       1    1py               0.040410       0.025826
                          4       1    1pz               0.040410       0.025826

                          5       1    1dx2              0.550000       0.578155
                          5       1    1dxy              0.550000       1.001394
                          5       1    1dxz              0.550000       1.001394
                          5       1    1dy2              0.550000       0.578155
                          5       1    1dyz              0.550000       1.001394
                          5       1    1dz2              0.550000       0.578155

                          6       1    1dx2              0.151000       0.060203
                          6       1    1dxy              0.151000       0.104275
                          6       1    1dxz              0.151000       0.104275
                          6       1    1dy2              0.151000       0.060203
                          6       1    1dyz              0.151000       0.104275
                          6       1    1dz2              0.151000       0.060203

     RI Auxiliary Basis Set                                    aug-cc-pvdz-rifit

       Number of orbital shell sets:                                          22
       Number of orbital shells:                                              22
       Number of primitive Cartesian functions:                               22
       Number of Cartesian basis functions:                                   86
       Number of spherical basis functions:                                   72
       Norm type:                                                              2

       Normalised Cartesian orbitals:

                        Set   Shell   Orbital            Exponent    Coefficient

                          1       1    1s               62.745300      15.888979

                          2       1    1s               13.804500       5.104176

                          3       1    1s                4.772770       2.301378

                          4       1    1s                1.513330       0.972434

                          5       1    1s                0.782697       0.593069

                          6       1    1s                0.409072       0.364552

                          7       1    1s                0.206796       0.218558

                          8       1    1s                0.073830       0.100945

                          9       1    1px              20.885100      63.640823
                          9       1    1py              20.885100      63.640823
                          9       1    1pz              20.885100      63.640823

                         10       1    1px               6.005230      13.399918
                         10       1    1py               6.005230      13.399918
                         10       1    1pz               6.005230      13.399918

                         11       1    1px               1.720600       2.808924
                         11       1    1py               1.720600       2.808924
                         11       1    1pz               1.720600       2.808924

                         12       1    1px               0.754465       1.002280
                         12       1    1py               0.754465       1.002280
                         12       1    1pz               0.754465       1.002280

                         13       1    1px               0.321667       0.345301
                         13       1    1py               0.321667       0.345301
                         13       1    1pz               0.321667       0.345301

                         14       1    1px               0.125953       0.106954
                         14       1    1py               0.125953       0.106954
                         14       1    1pz               0.125953       0.106954

                         15       1    1dx2             10.171500      95.352748
                         15       1    1dxy             10.171500     165.155804
                         15       1    1dxz             10.171500     165.155804
                         15       1    1dy2             10.171500      95.352748
                         15       1    1dyz             10.171500     165.155804
                         15       1    1dz2             10.171500      95.352748

                         16       1    1dx2              2.678440       9.230024
                         16       1    1dxy              2.678440      15.986870
                         16       1    1dxz              2.678440      15.986870
                         16       1    1dy2              2.678440       9.230024
                         16       1    1dyz              2.678440      15.986870
                         16       1    1dz2              2.678440       9.230024

                         17       1    1dx2              0.922515       1.429266
                         17       1    1dxy              0.922515       2.475561
                         17       1    1dxz              0.922515       2.475561
                         17       1    1dy2              0.922515       1.429266
                         17       1    1dyz              0.922515       2.475561
                         17       1    1dz2              0.922515       1.429266

                         18       1    1dx2              0.340842       0.250252
                         18       1    1dxy              0.340842       0.433449
                         18       1    1dxz              0.340842       0.433449
                         18       1    1dy2              0.340842       0.250252
                         18       1    1dyz              0.340842       0.433449
                         18       1    1dz2              0.340842       0.250252

                         19       1    1dx2              0.110211       0.034698
                         19       1    1dxy              0.110211       0.060099
                         19       1    1dxz              0.110211       0.060099
                         19       1    1dy2              0.110211       0.034698
                         19       1    1dyz              0.110211       0.060099
                         19       1    1dz2              0.110211       0.034698

                         20       1    1fx3              2.742930      14.254027
                         20       1    1fx2y             2.742930      31.872974
                         20       1    1fx2z             2.742930      31.872974
                         20       1    1fxy2             2.742930      31.872974
                         20       1    1fxyz             2.742930      55.205610
                         20       1    1fxz2             2.742930      31.872974
                         20       1    1fy3              2.742930      14.254027
                         20       1    1fy2z             2.742930      31.872974
                         20       1    1fyz2             2.742930      31.872974
                         20       1    1fz3              2.742930      14.254027

                         21       1    1fx3              0.895756       1.149162
                         21       1    1fx2y             0.895756       2.569605
                         21       1    1fx2z             0.895756       2.569605
                         21       1    1fxy2             0.895756       2.569605
                         21       1    1fxyz             0.895756       4.450686
                         21       1    1fxz2             0.895756       2.569605
                         21       1    1fy3              0.895756       1.149162
                         21       1    1fy2z             0.895756       2.569605
                         21       1    1fyz2             0.895756       2.569605
                         21       1    1fz3              0.895756       1.149162

                         22       1    1fx3              0.317146       0.111119
                         22       1    1fx2y             0.317146       0.248470
                         22       1    1fx2z             0.317146       0.248470
                         22       1    1fxy2             0.317146       0.248470
                         22       1    1fxyz             0.317146       0.430362
                         22       1    1fxz2             0.317146       0.248470
                         22       1    1fy3              0.317146       0.111119
                         22       1    1fy2z             0.317146       0.248470
                         22       1    1fyz2             0.317146       0.248470
                         22       1    1fz3              0.317146       0.111119

       Atomic covalent radius [Angstrom]:                                  0.770

       Atomic van der Waals radius [Angstrom]:                             1.700

     The atoms of this atomic kind are PAW atoms (GAPW):
       Hard Gaussian function radius:                                      1.512
       Rho0 radius:                                                        1.512
       Maximum GTO radius used for PAW projector construction:            24.566

     GAPW Soft Basis Set                                        aug-cc-pvdz_soft

       Number of orbital shell sets:                                           6
       Number of orbital shells:                                               9
       Number of primitive Cartesian functions:                               10
       Number of Cartesian basis functions:                                   25
       Number of spherical basis functions:                                   23
       Norm type:                                                              2

       Normalised Cartesian orbitals:

                        Set   Shell   Orbital            Exponent    Coefficient

                          1       1    1s                2.797000       0.439427
                                                         0.521500       0.006650
                                                         0.159600      -0.000574

                          1       2    2s                2.797000      -0.196168
                                                         0.521500       0.238162
                                                         0.159600       0.104468

                          1       3    3s                2.797000       0.000000
                                                         0.521500       0.000000
                                                         0.159600       0.179964

                          2       1    1s                0.046900       0.071827

                          3       1    1px               2.002000       0.711071
                                                         0.545600       0.339917
                                                         0.151700       0.063270
                          3       1    1py               2.002000       0.711071
                                                         0.545600       0.339917
                                                         0.151700       0.063270
                          3       1    1pz               2.002000       0.711071
                                                         0.545600       0.339917
                                                         0.151700       0.063270

                          3       2    2px               2.002000       0.000000
                                                         0.545600       0.000000
                                                         0.151700       0.134950
                          3       2    2py               2.002000       0.000000
                                                         0.545600       0.000000
                                                         0.151700       0.134950
                          3       2    2pz               2.002000       0.000000
                                                         0.545600       0.000000
                                                         0.151700       0.134950

                          4       1    1px               0.040410       0.025826
                          4       1    1py               0.040410       0.025826
                          4       1    1pz               0.040410       0.025826

                          5       1    1dx2              0.550000       0.578155
                          5       1    1dxy              0.550000       1.001394
                          5       1    1dxz              0.550000       1.001394
                          5       1    1dy2              0.550000       0.578155
                          5       1    1dyz              0.550000       1.001394
                          5       1    1dz2              0.550000       0.578155

                          6       1    1dx2              0.151000       0.060203
                          6       1    1dxy              0.151000       0.104275
                          6       1    1dxz              0.151000       0.104275
                          6       1    1dy2              0.151000       0.060203
                          6       1    1dyz              0.151000       0.104275
                          6       1    1dz2              0.151000       0.060203

     AE Potential information for                                            ALL

       Description:                                       All-electron potential
                                          Krack, Parrinello, PCCP 2, 2105 (2000)

       Gaussian exponent of the core charge distribution:               4.109048
       Electronic configuration (s p d ...):                           4   2   0


 MOLECULE KIND INFORMATION


 All atoms are their own molecule, skipping detailed information


 TOTAL NUMBERS AND MAXIMUM NUMBERS

  Total number of            - Atomic kinds:                                   2
                             - Atoms:                                         14
                             - Shell sets:                                    68
                             - Shells:                                        94
                             - Primitive Cartesian functions:                158
                             - Cartesian basis functions:                    222
                             - Spherical basis functions:                    210

  Maximum angular momentum of the orbital basis functions:                     2


 MODULE QUICKSTEP: ATOMIC COORDINATES IN ANGSTROM

   Atom Kind Element         X             Y             Z       Z(eff)     Mass
      1    1 H     1      9.046223     11.207691     10.000000   1.0000   1.0079
      2    1 H     1     10.953777      8.792309     10.000000   1.0000   1.0079
      3    1 H     1     12.155816     10.952317     10.000000   1.0000   1.0079
      4    1 H     1      7.844184      9.047683     10.000000   1.0000   1.0079
      5    1 H     1     12.125769     13.402692     10.000000   1.0000   1.0079
      6    1 H     1      7.874231      6.597308     10.000000   1.0000   1.0079
      7    1 H     1     10.275642     13.397162     10.000000   1.0000   1.0079
      8    1 H     1      9.724358      6.602838     10.000000   1.0000   1.0079
      9    2 C     6     10.000000     10.676808     10.000000   6.0000  12.0107
     10    2 C     6     10.000000      9.323192     10.000000   6.0000  12.0107
     11    2 C     6     11.204938     11.485654     10.000000   6.0000  12.0107
     12    2 C     6      8.795062      8.514346     10.000000   6.0000  12.0107
     13    2 C     6     11.203567     12.831663     10.000000   6.0000  12.0107
     14    2 C     6      8.796433      7.168337     10.000000   6.0000  12.0107



 SCF PARAMETERS         Density guess:                                   RESTART
                        --------------------------------------------------------
                        max_scf:                                             200
                        max_scf_history:                                       0
                        max_diis:                                              4
                        --------------------------------------------------------
                        eps_scf:                                        1.00E-09
                        eps_scf_history:                                0.00E+00
                        eps_diis:                                       1.00E-01
                        eps_eigval:                                     1.00E-05
                        --------------------------------------------------------
                        level_shift [a.u.]:                             0.000000
                        added MOs                                       188    0
                        --------------------------------------------------------
                        Mixing method:                            BROYDEN_MIXING
                                                charge density mixing in g-space
                        --------------------------------------------------------
                        No outer SCF

 PW_GRID| Information for grid number                                          1
 PW_GRID| Grid distributed over                                    16 processors
 PW_GRID| Real space group dimensions                                    16    1
 PW_GRID| the grid is blocked:                                                NO
 PW_GRID| Cutoff [a.u.]                                                    300.0
 PW_GRID| spherical cutoff:                                                   NO
 PW_GRID|   Bounds   1           -150     149                Points:         300
 PW_GRID|   Bounds   2           -150     149                Points:         300
 PW_GRID|   Bounds   3           -150     149                Points:         300
 PW_GRID| Volume element (a.u.^3)  0.2000E-02     Volume (a.u.^3)     53986.6767
 PW_GRID| Grid span                                                    FULLSPACE
 PW_GRID|   Distribution                         Average         Max         Min
 PW_GRID|   G-Vectors                          1687500.0     1687500     1687500
 PW_GRID|   G-Rays                                5625.0        5625        5625
 PW_GRID|   Real Space Points                  1687500.0     1710000     1620000

 PW_GRID| Information for grid number                                          2
 PW_GRID| Number of the reference grid                                         1
 PW_GRID| Grid distributed over                                    16 processors
 PW_GRID| Real space group dimensions                                    16    1
 PW_GRID| the grid is blocked:                                                NO
 PW_GRID| Cutoff [a.u.]                                                    100.0
 PW_GRID| spherical cutoff:                                                   NO
 PW_GRID|   Bounds   1            -90      89                Points:         180
 PW_GRID|   Bounds   2            -90      89                Points:         180
 PW_GRID|   Bounds   3            -90      89                Points:         180
 PW_GRID| Volume element (a.u.^3)  0.9257E-02     Volume (a.u.^3)     53986.6767
 PW_GRID| Grid span                                                    FULLSPACE
 PW_GRID|   Distribution                         Average         Max         Min
 PW_GRID|   G-Vectors                           364500.0      364680      364320
 PW_GRID|   G-Rays                                2025.0        2026        2024
 PW_GRID|   Real Space Points                   364500.0      388800      356400

 PW_GRID| Information for grid number                                          3
 PW_GRID| Number of the reference grid                                         1
 PW_GRID| Grid distributed over                                    16 processors
 PW_GRID| Real space group dimensions                                    16    1
 PW_GRID| the grid is blocked:                                                NO
 PW_GRID| Cutoff [a.u.]                                                     33.3
 PW_GRID| spherical cutoff:                                                   NO
 PW_GRID|   Bounds   1            -50      49                Points:         100
 PW_GRID|   Bounds   2            -50      49                Points:         100
 PW_GRID|   Bounds   3            -50      49                Points:         100
 PW_GRID| Volume element (a.u.^3)  0.5399E-01     Volume (a.u.^3)     53986.6767
 PW_GRID| Grid span                                                    FULLSPACE
 PW_GRID|   Distribution                         Average         Max         Min
 PW_GRID|   G-Vectors                            62500.0       62600       62400
 PW_GRID|   G-Rays                                 625.0         626         624
 PW_GRID|   Real Space Points                    62500.0       70000       60000

 PW_GRID| Information for grid number                                          4
 PW_GRID| Number of the reference grid                                         1
 PW_GRID| Grid distributed over                                    16 processors
 PW_GRID| Real space group dimensions                                    16    1
 PW_GRID| the grid is blocked:                                                NO
 PW_GRID| Cutoff [a.u.]                                                     11.1
 PW_GRID| spherical cutoff:                                                   NO
 PW_GRID|   Bounds   1            -30      29                Points:          60
 PW_GRID|   Bounds   2            -30      29                Points:          60
 PW_GRID|   Bounds   3            -30      29                Points:          60
 PW_GRID| Volume element (a.u.^3)  0.2499         Volume (a.u.^3)     53986.6767
 PW_GRID| Grid span                                                    FULLSPACE
 PW_GRID|   Distribution                         Average         Max         Min
 PW_GRID|   G-Vectors                            13500.0       13560       13440
 PW_GRID|   G-Rays                                 225.0         226         224
 PW_GRID|   Real Space Points                    13500.0       14400       10800

 POISSON| Solver                                                         WAVELET
 POISSON| Wavelet| Scaling function                                           40
 POISSON| Periodicity                                                       NONE

 RS_GRID| Information for grid number                                          1
 RS_GRID|   Bounds   1           -150     149                Points:         300
 RS_GRID|   Bounds   2           -150     149                Points:         300
 RS_GRID|   Bounds   3           -150     149                Points:         300
 RS_GRID| Real space distribution over                                  4 groups
 RS_GRID| Real space distribution along direction                              2
 RS_GRID| Border size                                                         24
 RS_GRID| Real space distribution over                                  4 groups
 RS_GRID| Real space distribution along direction                              3
 RS_GRID| Border size                                                         24
 RS_GRID|   Distribution                         Average         Max         Min
 RS_GRID|   Planes                                 123.0         123         123
 RS_GRID|   Distribution                         Average         Max         Min
 RS_GRID|   Planes                                 123.0         123         123

 RS_GRID| Information for grid number                                          2
 RS_GRID|   Bounds   1            -90      89                Points:         180
 RS_GRID|   Bounds   2            -90      89                Points:         180
 RS_GRID|   Bounds   3            -90      89                Points:         180
 RS_GRID| Real space distribution over                                  4 groups
 RS_GRID| Real space distribution along direction                              2
 RS_GRID| Border size                                                         25
 RS_GRID| Real space distribution over                                  4 groups
 RS_GRID| Real space distribution along direction                              3
 RS_GRID| Border size                                                         25
 RS_GRID|   Distribution                         Average         Max         Min
 RS_GRID|   Planes                                  95.0          95          95
 RS_GRID|   Distribution                         Average         Max         Min
 RS_GRID|   Planes                                  95.0          95          95

 RS_GRID| Information for grid number                                          3
 RS_GRID|   Bounds   1            -50      49                Points:         100
 RS_GRID|   Bounds   2            -50      49                Points:         100
 RS_GRID|   Bounds   3            -50      49                Points:         100
 RS_GRID| Real space fully replicated
 RS_GRID| Group size                                                           1

 RS_GRID| Information for grid number                                          4
 RS_GRID|   Bounds   1            -30      29                Points:          60
 RS_GRID|   Bounds   2            -30      29                Points:          60
 RS_GRID|   Bounds   3            -30      29                Points:          60
 RS_GRID| Real space fully replicated
 RS_GRID| Group size                                                           1

  HFX_INFO| Replica ID:                                                        1
  HFX_INFO| FRACTION:                                               0.2500000000
  HFX_INFO| Interaction Potential:                                       COULOMB
  HFX_INFO| EPS_SCHWARZ:                                                 1.0E-10
  HFX_INFO| EPS_SCHWARZ_FORCES                                           1.0E-08
  HFX_INFO| EPS_STORAGE_SCALING:                                         1.0E+00
  HFX_INFO| NBINS:                                                            64
  HFX_INFO| BLOCK_SIZE:                                                        1
  HFX_INFO| Number of periodic shells considered:                           NONE
  HFX_INFO| Number of periodic cells considered:                            NONE


 Number of electrons:                                                         44
 Number of occupied orbitals:                                                 22
 Number of molecular orbitals:                                               210

 Number of orbital functions:                                                210
 Number of independent orbital functions:                                    210

 Extrapolation method: initial_guess

 *** WARNING in qs_initial_guess.F:306 :: User requested to restart the   ***
 *** wavefunction from the file named: Hexatriene-RESTART.wfn. This file  ***
 *** does not exist. Please check the existence of the file or change     ***
 *** properly the value of the keyword WFN_RESTART_FILE_NAME. Calculation ***
 *** continues using ATOMIC GUESS.                                        ***


 Atomic guess: The first density matrix is obtained in terms of atomic orbitals
               and electronic configurations assigned to each atomic kind

 Guess for atomic kind: H

 Electronic structure
    Total number of core electrons                                          0.00
    Total number of valence electrons                                       1.00
    Total number of electrons                                               1.00
    Multiplicity                                                   not specified
    S      1.00


 *******************************************************************************
                  Iteration          Convergence                     Energy [au]
 *******************************************************************************
                          1        0.880988E-02                  -0.444778274653
                          2        0.791349E-03                  -0.444877834394
                          3        0.111042E-03                  -0.444880192149
                          4        0.306660E-07                  -0.444880212296

 Energy components [Hartree]           Total Energy ::           -0.444880212296
                                        Band Energy ::           -0.232361879729
                                     Kinetic Energy ::            0.420568354334
                                   Potential Energy ::           -0.865448566630
                                      Virial (-V/T) ::            2.057807150044
                                        Core Energy ::           -0.495477856147
                                          XC Energy ::           -0.232385335983
                                     Coulomb Energy ::            0.282982979834

 Orbital energies  State     L     Occupation   Energy[a.u.]          Energy[eV]

                       1     0          1.000      -0.232362           -6.322888


 Total Electron Density at R=0:                                         0.221399

 Guess for atomic kind: C

 Electronic structure
    Total number of core electrons                                          0.00
    Total number of valence electrons                                       6.00
    Total number of electrons                                               6.00
    Multiplicity                                                   not specified
    S      2.00  2.00
    P      2.00


 *******************************************************************************
                  Iteration          Convergence                     Energy [au]
 *******************************************************************************
                          1        0.121977                     -37.400018089324
                          2        0.904329E-01                 -37.406032348656
                          3        0.638681E-03                 -37.414959418976
                          4        0.141121E-03                 -37.414959795862
                          5        0.446247E-06                 -37.414959815731

 Energy components [Hartree]           Total Energy ::          -37.414959815731
                                        Band Energy ::          -21.286259476185
                                     Kinetic Energy ::           37.482739917864
                                   Potential Energy ::          -74.897699733595
                                      Virial (-V/T) ::            1.998191698305
                                        Core Energy ::          -50.304318516063
                                          XC Energy ::           -4.741579470163
                                     Coulomb Energy ::           17.630938170495

 Orbital energies  State     L     Occupation   Energy[a.u.]          Energy[eV]

                       1     0          2.000      -9.942952         -270.561481
                       2     0          2.000      -0.501864          -13.656426

                       1     1          2.000      -0.198313           -5.396382


 Total Electron Density at R=0:                                       121.940282
 Re-scaling the density matrix to get the right number of electrons
                  # Electrons              Trace(P)               Scaling factor
                           44                44.000                        1.000


 SCF WAVEFUNCTION OPTIMIZATION

  Step     Update method      Time    Convergence         Total energy    Change
  ------------------------------------------------------------------------------

  HFX_MEM_INFO| Est. max. program size before HFX [MiB]:                    1242
  HFX_MEM_INFO| Number of cart. primitive ERI's calculated:           1054613574
  HFX_MEM_INFO| Number of sph. ERI's calculated:                       285643988
  HFX_MEM_INFO| Number of sph. ERI's stored in-core:                   285643988
  HFX_MEM_INFO| Number of sph. ERI's stored on disk:                           0
  HFX_MEM_INFO| Number of sph. ERI's calculated on the fly:                    0
  HFX_MEM_INFO| Total memory consumption ERI's RAM [MiB]:                    764
  HFX_MEM_INFO| Whereof max-vals [MiB]:                                        1
  HFX_MEM_INFO| Total compression factor ERI's RAM:                         2.86
  HFX_MEM_INFO| Total memory consumption ERI's disk [MiB]:                     0
  HFX_MEM_INFO| Total compression factor ERI's disk:                        0.00
  HFX_MEM_INFO| Size of density/Fock matrix [MiB]:                             0
  HFX_MEM_INFO| Size of buffers [MiB]:                                         0
  HFX_MEM_INFO| Est. max. program size after HFX  [MiB]:                    1519

     1 NoMix/Diag. 0.40E+00    6.7     3.29352102      -234.3642089916 -2.34E+02
     2 Broy./Diag. 0.40E+00    3.2     0.52409174      -229.6219730287  4.74E+00
     3 Broy./Diag. 0.40E+00    3.2     1.00911524      -232.2373082455 -2.62E+00
     4 Broy./Diag. 0.40E+00    3.2     0.24456048      -233.0669849136 -8.30E-01
     5 Broy./Diag. 0.40E+00    3.3     0.10776616      -232.8736977849  1.93E-01
     6 Broy./Diag. 0.40E+00    3.4     0.05678387      -233.0956873711 -2.22E-01
     7 Broy./Diag. 0.40E+00    3.3     0.03600912      -233.1142178442 -1.85E-02
     8 Broy./Diag. 0.40E+00    3.3     0.01327712      -233.0923903095  2.18E-02
     9 Broy./Diag. 0.40E+00    3.3     0.02473759      -233.1193292431 -2.69E-02
    10 Broy./Diag. 0.40E+00    3.3     0.03473141      -233.1242655845 -4.94E-03
    11 Broy./Diag. 0.40E+00    3.3     0.00238639      -233.1272401838 -2.97E-03
    12 Broy./Diag. 0.40E+00    3.3     0.00827680      -233.1311283245 -3.89E-03
    13 Broy./Diag. 0.40E+00    3.3     0.00462272      -233.1297696533  1.36E-03
    14 Broy./Diag. 0.40E+00    3.3     0.01185925      -233.1296144796  1.55E-04
    15 Broy./Diag. 0.40E+00    3.3     0.00838479      -233.1287503815  8.64E-04
    16 Broy./Diag. 0.40E+00    3.3     0.00189870      -233.1285348690  2.16E-04
    17 Broy./Diag. 0.40E+00    3.3     0.00115235      -233.1294049915 -8.70E-04
    18 Broy./Diag. 0.40E+00    3.3     0.00132186      -233.1293947118  1.03E-05
    19 Broy./Diag. 0.40E+00    3.3     0.00377048      -233.1293228602  7.19E-05
    20 Broy./Diag. 0.40E+00    3.3     0.00201826      -233.1296586867 -3.36E-04
    21 Broy./Diag. 0.40E+00    3.3     0.00112304      -233.1294014318  2.57E-04
    22 Broy./Diag. 0.40E+00    3.3     0.00229757      -233.1293455814  5.59E-05
    23 Broy./Diag. 0.40E+00    3.3     0.00089848      -233.1295016140 -1.56E-04
    24 Broy./Diag. 0.40E+00    3.3     0.00067748      -233.1293733620  1.28E-04
    25 Broy./Diag. 0.40E+00    3.3     0.00055721      -233.1293251589  4.82E-05
    26 Broy./Diag. 0.40E+00    3.3     0.00028717      -233.1293693940 -4.42E-05
    27 Broy./Diag. 0.40E+00    3.3     0.00020662      -233.1293044972  6.49E-05
    28 Broy./Diag. 0.40E+00    3.3     0.00017771      -233.1292778128  2.67E-05
    29 Broy./Diag. 0.40E+00    3.3     0.00011313      -233.1293013010 -2.35E-05
    30 Broy./Diag. 0.40E+00    3.3     0.00010997      -233.1292881360  1.32E-05
    31 Broy./Diag. 0.40E+00    3.3     0.00011783      -233.1292804561  7.68E-06
    32 Broy./Diag. 0.40E+00    3.3     0.00010969      -233.1292896362 -9.18E-06
    33 Broy./Diag. 0.40E+00    3.3     0.00011994      -233.1292885918  1.04E-06
    34 Broy./Diag. 0.40E+00    3.4     0.00013907      -233.1292867721  1.82E-06
    35 Broy./Diag. 0.40E+00    3.3     0.00002107      -233.1292891006 -2.33E-06
    36 Broy./Diag. 0.40E+00    3.3     0.00007444      -233.1292883300  7.71E-07
    37 Broy./Diag. 0.40E+00    3.3     0.00000473      -233.1292880976  2.32E-07
    38 Broy./Diag. 0.40E+00    3.3     0.00001488      -233.1292894530 -1.36E-06
    39 Broy./Diag. 0.40E+00    3.3     0.00001551      -233.1292888898  5.63E-07
    40 Broy./Diag. 0.40E+00    3.3     0.00000652      -233.1292882293  6.60E-07
    41 Broy./Diag. 0.40E+00    3.3     0.00000256      -233.1292885435 -3.14E-07
    42 Broy./Diag. 0.40E+00    3.3     0.00000416      -233.1292885459 -2.37E-09
    43 Broy./Diag. 0.40E+00    3.3     0.00000185      -233.1292882258  3.20E-07
    44 Broy./Diag. 0.40E+00    3.3     0.00000135      -233.1292883451 -1.19E-07
    45 Broy./Diag. 0.40E+00    3.3     0.00000108      -233.1292883694 -2.43E-08
    46 Broy./Diag. 0.40E+00    3.3     0.00000043      -233.1292882825  8.69E-08
    47 Broy./Diag. 0.40E+00    3.3     0.00000022      -233.1292883606 -7.81E-08
    48 Broy./Diag. 0.40E+00    3.3     0.00000042      -233.1292883391  2.16E-08
    49 Broy./Diag. 0.40E+00    3.3     0.00000014      -233.1292883005  3.85E-08
    50 Broy./Diag. 0.40E+00    3.3     0.00000045      -233.1292883283 -2.78E-08
    51 Broy./Diag. 0.40E+00    3.3     0.00000099      -233.1292883398 -1.15E-08
    52 Broy./Diag. 0.40E+00    3.3     0.00000078      -233.1292883384  1.35E-09
    53 Broy./Diag. 0.40E+00    3.3     0.00000045      -233.1292883478 -9.36E-09
    54 Broy./Diag. 0.40E+00    3.3     0.00000017      -233.1292883501 -2.34E-09
    55 Broy./Diag. 0.40E+00    3.3     0.00000004      -233.1292883449  5.19E-09
    56 Broy./Diag. 0.40E+00    3.3     0.00000007      -233.1292883409  4.04E-09
    57 Broy./Diag. 0.40E+00    3.3     0.00000012      -233.1292883412 -2.83E-10
    58 Broy./Diag. 0.40E+00    3.3     0.00000003      -233.1292883417 -5.55E-10
    59 Broy./Diag. 0.40E+00    3.3     0.00000003      -233.1292883407  9.98E-10
    60 Broy./Diag. 0.40E+00    3.3     0.00000001      -233.1292883392  1.50E-09
    61 Broy./Diag. 0.40E+00    3.4     0.00000001      -233.1292883385  7.15E-10
    62 Broy./Diag. 0.40E+00    3.3     0.00000002      -233.1292883385 -1.63E-11
    63 Broy./Diag. 0.40E+00    3.3     5.7469E-09      -233.1292883387 -2.09E-10
    64 Broy./Diag. 0.40E+00    3.3     3.6332E-09      -233.1292883388 -5.34E-11
    65 Broy./Diag. 0.40E+00    3.3     6.1769E-09      -233.1292883386  1.63E-10
    66 Broy./Diag. 0.40E+00    3.3     5.1983E-09      -233.1292883386  2.87E-11
    67 Broy./Diag. 0.40E+00    3.3     2.9887E-09      -233.1292883387 -1.18E-10
    68 Broy./Diag. 0.40E+00    3.3     2.1124E-09      -233.1292883387  5.10E-11
    69 Broy./Diag. 0.40E+00    3.3     2.2527E-09      -233.1292883385  1.60E-10
    70 Broy./Diag. 0.40E+00    3.4     2.5847E-09      -233.1292883385  4.98E-11
    71 Broy./Diag. 0.40E+00    3.3     1.5996E-09      -233.1292883385  5.63E-12
    72 Broy./Diag. 0.40E+00    3.3     4.1145E-09      -233.1292883385 -4.02E-11
    73 Broy./Diag. 0.40E+00    3.3     2.9933E-09      -233.1292883385 -5.03E-11
    74 Broy./Diag. 0.40E+00    3.3     6.1566E-10      -233.1292883385  8.78E-12

  *** SCF run converged in    74 steps ***


  Electronic density on regular grids:        -32.7837385991       11.2162614009
  Core density on regular grids:               44.0000000000       -0.0000000000
  Hard and soft densities (Lebedev):         -292.6992984589     -281.4830365781
  Total Rho_soft + Rho1_hard - Rho1_soft      -44.0000004799
  Total charge density (r-space):              -0.0000004799
  Total Rho_soft + Rho0_soft (g-space):        -0.0000005475

  Overlap energy of the core charge distribution:               0.00001824423737
  Self energy of the core charge distribution:               -185.96027138526242
  Core Hamiltonian energy:                                    -40.17104494333473
  Hartree energy:                                              75.92835531162997
  Exchange-correlation energy:                                -10.61149158467064
  Hartree-Fock Exchange energy:                                -8.45940938815979

  GAPW| Exc from hard and soft atomic rho1:                   -16.08617731586107
  GAPW| local Eh = 1 center integrals:                        -47.76926727711497

  Total energy:                                              -233.12928833853627

 !-----------------------------------------------------------------------------!
                     Mulliken Population Analysis

 #  Atom  Element  Kind  Atomic population                           Net charge
       1     H        1          1.731859                             -0.731859
       2     H        1          1.731859                             -0.731859
       3     H        1          1.720621                             -0.720621
       4     H        1          1.720621                             -0.720621
       5     H        1          1.464783                             -0.464783
       6     H        1          1.464783                             -0.464783
       7     H        1          1.496123                             -0.496123
       8     H        1          1.496123                             -0.496123
       9     C        2          4.878439                              1.121561
      10     C        2          4.878439                              1.121561
      11     C        2          5.001240                              0.998760
      12     C        2          5.001240                              0.998760
      13     C        2          5.706933                              0.293067
      14     C        2          5.706933                              0.293067
 # Total charge                             44.000000                 -0.000000

 !-----------------------------------------------------------------------------!

 !-----------------------------------------------------------------------------!
                           Hirshfeld Charges

  #Atom  Element  Kind  Ref Charge     Population                    Net charge
      1       H      1       1.000          0.510                         0.490
      2       H      1       1.000          0.510                         0.490
      3       H      1       1.000          0.510                         0.490
      4       H      1       1.000          0.510                         0.490
      5       H      1       1.000          0.506                         0.494
      6       H      1       1.000          0.506                         0.494
      7       H      1       1.000          0.507                         0.493
      8       H      1       1.000          0.507                         0.493
      9       C      2       6.000          6.480                        -0.480
     10       C      2       6.000          6.480                        -0.480
     11       C      2       6.000          6.473                        -0.473
     12       C      2       6.000          6.473                        -0.473
     13       C      2       6.000          6.990                        -0.990
     14       C      2       6.000          6.990                        -0.990

  Total Charge                                                            0.047
 !-----------------------------------------------------------------------------!

 MOMENTS
  The electric/magnetic moments are written to file:
  Hexatriene-MOMENTS-moments-1.dat

  
 -------------------------------------------------------------------------------
 -                                                                             -
 -                          BANDSTRUCTURE CALCULATION                          -
 -                                                                             -
 -------------------------------------------------------------------------------
  
 Number of occupied molecular orbitals (MOs) = Number of occupied bands       22
 Number of unoccupied (= virtual) MOs = Number of unoccupied bands           188
 Number of Gaussian basis functions for MOs                                  210
 K-point mesh for the density of states (DOS) and the self-energy      1   1   1
  
 -------------------------------------------------------------------------------
 -                                                                             -
 -                              GW CALCULATION                                 -
 -                                                                             -
 -------------------------------------------------------------------------------
  
 Input: Number of time/freq. points                                           30
 Input: Filter threshold for sparse tensor operations                    1.0E-08
 Apply Hedin shift                                                             F
  
 Number of auxiliary Gaussian basis functions for , , W                    616
 Cutoff radius for the truncated Coulomb operator in ^x:               2645.9 
 Cutoff radius for the truncated Coulomb operator in RI metric:            3.0 
 Regularization parameter of RI                                          0.0E+00
 Lattice sum size for V(k):                                                    3
  
 K-point mesh 1 for , , W                                            1   1   1
 K-point mesh 2 for , , W (for k-point extrapolation of W)           1   1   1
 Approximate the k-point extrapolation                                         F
 Group size for tensor operations                                             16
 
 Computed 3-center integrals (|P), execution time                        0.9 s
 Percentage of non-zero (|P)                                         100.000 %
 Max. distance between , in non-zero (|P)                              8.0 A
 Required memory if storing all 3-center integrals (|P)                   0 GB
 
 Number of i and j atoms in M_P(), N_Q():                               20
 Number of inner loop atoms for  in M_P = sum_ (|P) G_                14
 
 SCF direct band gap (eV)                                                   4.74
 Max. SCF eigval diff. (eV)                                            272392.67
 E-Range for minimax grid                                               57480.15
 Number of Pad parameters for analytic continuation:                          7
 
 Computed (i,k=0) for time point            1 / 30,    Execution time    1.0 s
 Computed (i,k=0) for time point            2 / 30,    Execution time    0.7 s
 Computed (i,k=0) for time point            3 / 30,    Execution time    0.7 s
 Computed (i,k=0) for time point            4 / 30,    Execution time    0.7 s
 Computed (i,k=0) for time point            5 / 30,    Execution time    0.7 s
 Computed (i,k=0) for time point            6 / 30,    Execution time    0.7 s
 Computed (i,k=0) for time point            7 / 30,    Execution time    0.7 s
 Computed (i,k=0) for time point            8 / 30,    Execution time    0.7 s
 Computed (i,k=0) for time point            9 / 30,    Execution time    0.7 s
 Computed (i,k=0) for time point           10 / 30,    Execution time    0.7 s
 Computed (i,k=0) for time point           11 / 30,    Execution time    0.7 s
 Computed (i,k=0) for time point           12 / 30,    Execution time    0.7 s
 Computed (i,k=0) for time point           13 / 30,    Execution time    0.7 s
 Computed (i,k=0) for time point           14 / 30,    Execution time    0.7 s
 Computed (i,k=0) for time point           15 / 30,    Execution time    0.7 s
 Computed (i,k=0) for time point           16 / 30,    Execution time    0.7 s
 Computed (i,k=0) for time point           17 / 30,    Execution time    0.7 s
 Computed (i,k=0) for time point           18 / 30,    Execution time    0.7 s
 Computed (i,k=0) for time point           19 / 30,    Execution time    0.7 s
 Computed (i,k=0) for time point           20 / 30,    Execution time    0.7 s
 Computed (i,k=0) for time point           21 / 30,    Execution time    0.7 s
 Computed (i,k=0) for time point           22 / 30,    Execution time    0.7 s
 Computed (i,k=0) for time point           23 / 30,    Execution time    0.7 s
 Computed (i,k=0) for time point           24 / 30,    Execution time    0.7 s
 Computed (i,k=0) for time point           25 / 30,    Execution time    0.7 s
 Computed (i,k=0) for time point           26 / 30,    Execution time    0.7 s
 Computed (i,k=0) for time point           27 / 30,    Execution time    0.7 s
 Computed (i,k=0) for time point           28 / 30,    Execution time    0.7 s
 Computed (i,k=0) for time point           29 / 30,    Execution time    0.7 s
 Computed (i,k=0) for time point           30 / 30,    Execution time    0.7 s
 
 Computed W(i,k) for k-point batch           1 /  1,    Execution time    3.4 s
 
 Computed ^x(k=0),                                      Execution time    0.9 s
 
 Computed ^c(i,k=0) for time point          1 / 30,    Execution time    1.2 s
 Computed ^c(i,k=0) for time point          2 / 30,    Execution time    1.2 s
 Computed ^c(i,k=0) for time point          3 / 30,    Execution time    1.2 s
 Computed ^c(i,k=0) for time point          4 / 30,    Execution time    1.2 s
 Computed ^c(i,k=0) for time point          5 / 30,    Execution time    1.2 s
 Computed ^c(i,k=0) for time point          6 / 30,    Execution time    1.2 s
 Computed ^c(i,k=0) for time point          7 / 30,    Execution time    1.2 s
 Computed ^c(i,k=0) for time point          8 / 30,    Execution time    1.2 s
 Computed ^c(i,k=0) for time point          9 / 30,    Execution time    1.2 s
 Computed ^c(i,k=0) for time point         10 / 30,    Execution time    1.2 s
 Computed ^c(i,k=0) for time point         11 / 30,    Execution time    1.2 s
 Computed ^c(i,k=0) for time point         12 / 30,    Execution time    1.2 s
 Computed ^c(i,k=0) for time point         13 / 30,    Execution time    1.2 s
 Computed ^c(i,k=0) for time point         14 / 30,    Execution time    1.2 s
 Computed ^c(i,k=0) for time point         15 / 30,    Execution time    1.2 s
 Computed ^c(i,k=0) for time point         16 / 30,    Execution time    1.2 s
 Computed ^c(i,k=0) for time point         17 / 30,    Execution time    1.2 s
 Computed ^c(i,k=0) for time point         18 / 30,    Execution time    1.2 s
 Computed ^c(i,k=0) for time point         19 / 30,    Execution time    1.2 s
 Computed ^c(i,k=0) for time point         20 / 30,    Execution time    1.2 s
 Computed ^c(i,k=0) for time point         21 / 30,    Execution time    1.2 s
 Computed ^c(i,k=0) for time point         22 / 30,    Execution time    1.2 s
 Computed ^c(i,k=0) for time point         23 / 30,    Execution time    1.2 s
 Computed ^c(i,k=0) for time point         24 / 30,    Execution time    1.2 s
 Computed ^c(i,k=0) for time point         25 / 30,    Execution time    1.2 s
 Computed ^c(i,k=0) for time point         26 / 30,    Execution time    1.2 s
 Computed ^c(i,k=0) for time point         27 / 30,    Execution time    1.2 s
 Computed ^c(i,k=0) for time point         28 / 30,    Execution time    1.2 s
 Computed ^c(i,k=0) for time point         29 / 30,    Execution time    1.2 s
 Computed ^c(i,k=0) for time point         30 / 30,    Execution time    1.2 s
 
 Sparsity of ^c(i,k=0): Percentage of skipped atom pairs:                0.0 %
 Retaining nl_3c for RTBSE

 
 SCF valence band maximum (eV):                                           -6.227
 SCF conduction band minimum (eV):                                        -1.488
 SCF indirect band gap (eV):                                               4.739
 SCF direct band gap (eV):                                                 4.739
 
 G0W0 valence band maximum (eV):                                          -7.682
 G0W0 conduction band minimum (eV):                                        0.562
[...]
 flops    95 x   136 x   167             17261120       0.0%    100.0%      0.0%     
 flops     9 x     9 x    50             21578400       0.0%    100.0%      0.0%     
 flops    23 x     9 x    32             23528448       0.0%    100.0%      0.0%     
 flops     9 x    23 x    32             23528448       0.0%    100.0%      0.0%     
 flops    23 x   160 x   141             31132800       0.0%    100.0%      0.0%     
 flops    23 x     9 x    50             36763200       0.0%    100.0%      0.0%     
 flops     9 x    23 x    50             36763200       0.0%    100.0%      0.0%     
 flops    23 x   160 x   167             36873600       0.0%    100.0%      0.0%     
 flops   144 x   160 x   141             38983680       0.0%    100.0%      0.0%     
 flops   167 x   160 x   141             45210240       0.0%    100.0%      0.0%     
 flops   144 x   160 x   167             46172160       0.0%    100.0%      0.0%     
 flops    95 x   160 x   141             51436800       0.0%    100.0%      0.0%     
 flops    23 x    23 x    32             52612224       0.0%    100.0%      0.0%     
 flops   167 x   160 x   167             53546880       0.0%    100.0%      0.0%     
 flops     9 x     9 x    64             55240704       0.0%    100.0%      0.0%     
 flops    95 x   160 x   167             60921600       0.0%    100.0%      0.0%     
 flops    23 x    23 x    50             82206600       0.0%    100.0%      0.0%     
 flops    23 x     9 x    64             94113792       0.0%    100.0%      0.0%     
 flops     9 x    23 x    64             94113792       0.0%    100.0%      0.0%     
 flops    23 x    23 x    64            210448896       0.0%    100.0%      0.0%     
 flops inhomo. stacks                           0       0.0%      0.0%      0.0%
 flops total                         1.212198E+09       0.0%    100.0%      0.0%
 flops max/rank                     97.627600E+06       0.0%    100.0%      0.0%
 matmuls inhomo. stacks                         0       0.0%      0.0%      0.0%
 matmuls total                              31224       0.0%    100.0%      0.0%
 number of processed stacks                 21456       0.0%    100.0%      0.0%
 average stack size                                     0.0       1.5       0.0
 marketing flops                   611.079424E+06
 -------------------------------------------------------------------------------
 # multiplications                             75
 max memory usage/rank               1.940791E+09
 # max total images/rank                        1
 # max 3D layers                                1
 # MPI messages exchanged                    7200
 MPI messages size (bytes):
  total size                       174.857088E+06
  min size                          12.800000E+03
  max size                         223.112000E+03
  average size                      24.285707E+03
 MPI breakdown and total messages size (bytes):
             size <=      128                   0                        0
       128 < size <=     8192                   0                        0
      8192 < size <=    32768                7104                156643200
     32768 < size <=   131072                   0                        0
    131072 < size <=  4194304                  96                 18213888
   4194304 < size <= 16777216                   0                        0
  16777216 < size                               0                        0
 -------------------------------------------------------------------------------
 -                                                                             -
 -                      DBCSR MESSAGE PASSING PERFORMANCE                      -
 -                                                                             -
 -------------------------------------------------------------------------------
 ROUTINE             CALLS      AVE VOLUME [Bytes]
 MP_Bcast               29                     12.
 MP_Allreduce          678                     10.
 MP_Alltoall          7052                  21999.
 MP_ISend             1200                   9841.
 MP_IRecv             1200                   8262.
 -------------------------------------------------------------------------------

 -------------------------------------------------------------------------------
 -                                                                             -
 -                                DBM STATISTICS                               -
 -                                                                             -
 -------------------------------------------------------------------------------
    M  x    N  x    K                                          COUNT     PERCENT
    ?  x    ?  x    ?                                       15900256      50.00%
   ??  x  ???  x   ??                                        2276736       7.16%
  ???  x    ?  x    ?                                        1822720       5.73%
   ??  x   ??  x   ??                                        1480192       4.65%
   ??  x   ??  x  ???                                        1455632       4.58%
  ???  x    ?  x   ??                                        1367040       4.30%
  ???  x   ??  x    ?                                        1367040       4.30%
    ?  x    ?  x  ???                                        1206137       3.79%
  ???  x   ??  x   ??                                        1025280       3.22%
    ?  x   ??  x  ???                                         905568       2.85%
   ??  x    ?  x  ???                                         905339       2.85%
 >999  x    ?  x    ?                                         410112       1.29%
 >999  x    ?  x   ??                                         307584       0.97%
 >999  x   ??  x    ?                                         307584       0.97%
    ?  x    ?  x >999                                         271872       0.85%
 >999  x   ??  x   ??                                         230688       0.73%
    ?  x   ??  x >999                                         203904       0.64%
   ??  x    ?  x >999                                         203904       0.64%
   ??  x   ??  x >999                                         152928       0.48%
 -------------------------------------------------------------------------------

 -------------------------------------------------------------------------------
 -                                                                             -
 -                                GRID STATISTICS                              -
 -                                                                             -
 -------------------------------------------------------------------------------
 LP    KERNEL             BACKEND                              COUNT     PERCENT
 1     collocate ortho    CPU                                 161250      18.14%
 1     integrate ortho    CPU                                 161250      18.14%
 0     collocate ortho    CPU                                 111075      12.50%
 0     integrate ortho    CPU                                 111075      12.50%
 2     collocate ortho    CPU                                 110550      12.44%
 2     integrate ortho    CPU                                 110550      12.44%
 3     collocate ortho    CPU                                  38250       4.30%
 3     integrate ortho    CPU                                  38250       4.30%
 2     collocate general  CPU                                  16800       1.89%
 2     integrate general  CPU                                  16800       1.89%
 4     collocate ortho    CPU                                   6225       0.70%
 4     integrate ortho    CPU                                   6225       0.70%
 0     collocate general  CPU                                    224       0.03%
 0     integrate general  CPU                                    224       0.03%
 -------------------------------------------------------------------------------

 MEMORY| Estimated peak process memory [MiB]                                1873

 -------------------------------------------------------------------------------
 ----                             MULTIGRID INFO                            ----
 -------------------------------------------------------------------------------
 count for grid        1:         116590          cutoff [a.u.]          300.00
 count for grid        2:          20939          cutoff [a.u.]          100.00
 count for grid        3:          21144          cutoff [a.u.]           33.33
 count for grid        4:          12257          cutoff [a.u.]           11.11
 total gridlevel count  :         170930

 -------------------------------------------------------------------------------
 -                                                                             -
 -                         MESSAGE PASSING PERFORMANCE                         -
 -                                                                             -
 -------------------------------------------------------------------------------

 ROUTINE             CALLS      AVE VOLUME [Bytes]
 MP_Group             5053
 MP_Bcast             5112                   7852.
 MP_Allreduce        11666                   3977.
 MP_Sync              5612
 MP_Alltoall          4934               28005993.
 MP_SendRecv          2250                 337600.
 MP_ISendRecv         4530                 175975.
 MP_Wait             20170
 MP_comm_split        2841
 MP_ISend            39069                 465350.
 MP_IRecv            39645                 456648.
 -------------------------------------------------------------------------------


 -------------------------------------------------------------------------------
 -                                                                             -
 -                           R E F E R E N C E S                               -
 -                                                                             -
 -------------------------------------------------------------------------------
 
 CP2K version 2024.3 (Development Version), the CP2K developers group (2024).
 CP2K is freely available from https://www.cp2k.org/ .
 
 M. Graml, K. Zollner, D. Hernangmez-Prez, P. E. Faria Junior, J. Wilhelm.
 J. Chem. Theory Comput. 20, 2202-2208 (2024).
 Low-scaling GW algorithm applied to twisted transition-metal dichalcogenide 
 heterobilayers.
 https://doi.org/10.1021/acs.jctc.3c01230

 T. D. Kuehne, M. Iannuzzi, M. Del Ben, V. V. Rybkin, P. Seewald, F. Stein, T. 
 Laino, R. Z. Khaliullin, O. Schuett, F. Schiffmann, D. Golze, J. Wilhelm, S. 
 Chulkov, M. H. Bani-Hashemian, V. Weber, U. Borstnik, M. Taillefumier, A. S. 
 Jakobovits, A. Lazzaro, H. Pabst, T. Mueller, R. Schade, M. Guidon, S. 
 Andermatt, N. Holmberg, G. K. Schenter, A. Hehn, A. Bussy, F. Belleflamme, G. 
 Tabacchi, A. Gloess, M. Lass, I. Bethune, C. J. Mundy, C. Plessl, M. Watkins, 
 J. VandeVondele, M. Krack, J. Hutter.
 J. Chem. Phys. 152, 194103 (2020).
 CP2K: An electronic structure and molecular dynamics software package - 
 Quickstep: Efficient and accurate electronic structure calculations.
 https://doi.org/10.1063/5.0007045

 O. Schuett, P. Messmer, J. Hutter, J. VandeVondele.
 Electronic Structure Calculations on Graphics Processing Units, 173-190 (2016).
 GPU-Accelerated Sparse Matrix-Matrix Multiplication for Linear Scaling Density 
 Functional Theory.
 https://doi.org/10.1002/9781118670712.ch8

 A. Heinecke, G. Henry, M. Hutchinson, H. Pabst.
 Proceedings of Intl. Supercomputing Conference, 981-991 (2016).
 LIBXSMM: Accelerating Small Matrix Multiplications by Runtime Code Generation.
 https://doi.org/10.1109/SC.2016.83

 J. Hutter, M. Iannuzzi, F. Schiffmann, J. VandeVondele.
 WIREs Comput Mol Sci. 4, 15-25 (2014).
 CP2K: atomistic simulations of condensed matter systems.
 https://doi.org/10.1002/wcms.1159

 U. Borstnik, J. VandeVondele, V. Weber, J. Hutter.
 Parallel Comput. 40, 47-58 (2014).
 Sparse matrix multiplication: The distributed block-compressed sparse row 
 library.
 https://doi.org/10.1016/j.parco.2014.03.012

 M. Guidon, J. Hutter, J. VandeVondele.
 J. Chem. Theory Comput. 5, 3010-3021 (2009).
 Robust Periodic Hartree-Fock Exchange for Large-Scale Simulations Using 
 Gaussian Basis Sets.
 https://doi.org/10.1021/ct900494g

 M. Guidon, F. Schiffmann, J. Hutter, J. VandeVondele.
 J. Chem. Phys. 128, 214104 (2008).
 Ab initio molecular dynamics using hybrid density functionals.
 https://doi.org/10.1063/1.2931945

 L. Genovese, T. Deutsch, S. Goedecker.
 J. Chem. Phys. 127, 054704 (2007).
 Efficient and accurate three-dimensional Poisson solver for surface problems.
 https://doi.org/10.1063/1.2754685

 L. Genovese, T. Deutsch, A. Neelov, S. Goedecker, G. Beylkin.
 J. Chem. Phys. 125, 074105 (2006).
 Efficient solution of Poisson's equation with free boundary conditions.
 https://doi.org/10.1063/1.2335442

 M. Frigo, S. G. Johnson.
 Proc. IEEE 93, 216-231 (2005).
 The design and implementation of FFTW3.
 https://doi.org/10.1109/JPROC.2004.840301

 M. Krack, M. Parrinello.
 Phys. Chem. Chem. Phys. 2, 2105-2112 (2000).
 All-electron ab-initio molecular dynamics.
 https://doi.org/10.1039/b001167n

 G. Lippert, J. Hutter, M. Parrinello.
 Theor. Chem. Acc. 103, 124-140 (1999).
 The Gaussian and augmented-plane-wave density functional method for ab initio 
 molecular dynamics simulations.
 https://doi.org/10.1007/s002140050523

 J. P. Perdew, K. Burke, M. Ernzerhof.
 Phys. Rev. Lett. 77, 3865-3868 (1996).
 Generalized gradient approximation made simple.
 https://doi.org/10.1103/PhysRevLett.77.3865


 -------------------------------------------------------------------------------
 -                                                                             -
 -                                T I M I N G                                  -
 -                                                                             -
 -------------------------------------------------------------------------------
 SUBROUTINE                       CALLS  ASD         SELF TIME        TOTAL TIME
                                MAXIMUM       AVERAGE  MAXIMUM  AVERAGE  MAXIMUM
 CP2K                                 1  1.0    0.024    0.028  334.003  334.024
 run_propagation_bse                  1  2.0    0.002    0.009  333.298  333.319
 qs_energies                          1  3.0    0.000    0.000  316.679  316.698
 scf_env_do_scf                       1  4.0    0.000    0.000  248.635  248.649
 scf_env_do_scf_inner_loop           74  5.0    0.002    0.005  248.635  248.649
 qs_ks_build_kohn_sham_matrix        75  8.0    0.012    0.013  199.502  199.514
 qs_ks_update_qs_env                 74  6.0    0.000    0.001  198.006  198.018
 rebuild_ks_matrix                   74  7.0    0.000    0.000  198.003  198.015
 fft_wrap_pw1pw2                   1566 11.0    0.035    0.038  126.803  132.727
 fft_wrap_pw1pw2_300               1116 12.1    5.544    5.761  123.125  128.917
 fft3d_ps                          1566 13.0   52.213   53.020   98.614  104.464
 qs_vxc_create                       75  9.0    0.001    0.001   82.429   82.434
 xc_vxc_pw_create                    74 10.0    1.168    1.263   82.428   82.433
 qs_energies_properties               1  4.0    0.000    0.000   67.193   67.213
 post_scf_bandstructure               1  5.0    0.000    0.000   67.193   67.213
 gw                                   1  6.0    0.000    0.000   67.142   67.146
 pw_poisson_solve                    75  9.0    1.746    1.876   62.439   62.466
 xc_pw_derive                       444 12.0    0.006    0.007   56.318   61.742
 gw_calc_large_cell_Gamma             1  7.0    0.000    0.000   61.273   61.717
 xc_rho_set_and_dset_create          74 11.0    0.972    1.124   43.237   46.059
 xc_pw_divergence                    74 11.0    0.003    0.004   37.479   42.902
 compute_3c_integrals               153  9.6    0.003    0.003   37.674   37.678
 get_Sigma_c                          1  8.0    0.001    0.002   35.142   35.145
 ps_wavelet_solve                    75 10.0   30.719   31.568   35.040   35.103
 build_3c_integrals                 158 10.5   22.581   32.849   25.460   34.741
 dbt_total                          871  9.0    0.006    0.007   33.594   33.595
 dbt_contract                       414  8.9    0.022    0.022   30.369   30.462
 qs_rho_update_rho_low               75  6.0    0.001    0.001   29.219   29.224
 calculate_rho_elec                  75  7.0    0.893    0.905   29.142   29.147
 mp_alltoall_z22v                  1566 15.0   21.287   27.168   21.287   27.168
 dbt_tas_multiply                   828 11.4    0.002    0.002   26.872   27.007
 dbt_tas_total                      828 12.4    0.101    0.105   26.774   26.776
 yz_to_x                            747 13.8    9.066    9.550   20.861   26.304
 x_to_yz                            819 14.1   16.027   16.520   25.519   25.856
 contract_to_Sigma                   61  9.0    0.001    0.001   23.670   23.672
 density_rs2pw                       75  8.0    0.004    0.005   23.387   23.661
 mp_sync                           5612 12.0   14.981   22.562   14.981   22.562
 get_mat_chi_Gamma_tau                1  8.0    0.001    0.002   21.302   21.743
 gspace_mixing                       73  6.0    0.869    0.881   20.880   20.881
 sum_up_and_integrate                75  9.0    0.001    0.002   16.368   16.387
 integrate_v_rspace                  75 10.0    0.002    0.002   15.949   15.997
 dbt_tas_dbm                        828 13.4    0.003    0.003   15.643   15.643
 dbm_multiply                       828 15.4   14.726   15.507   14.726   15.507
 xc_functional_eval                 370 11.4    0.001    0.002   12.889   15.450
 pbe_lda_eval                       370 12.4   12.888   15.449   12.888   15.449
 potential_pw2rs                     75 11.0    0.046    0.054   15.166   15.213
 update_effective_ham                18  3.0    0.001    0.001   14.283   14.466
 get_sigma                           57  4.0    0.002    0.002   14.348   14.349
 prepare_gapw_den                    75  9.0    0.001    0.001   12.729   12.896
 put_rho0_on_grid                    75 10.0    0.915    0.962   12.438   12.604
 broyden_mixing                      73  7.0   11.691   11.798   11.817   11.888
 compute_3c_and_contract_W           31  9.0    0.000    0.000   11.664   11.669
 hfx_ks_matrix                       75  9.0    0.003    0.003   10.263   10.291
 integrate_four_center               75 10.0    1.637    1.871   10.250   10.276
 pw_scatter_p                       819 13.1    9.480    9.586    9.480    9.586
 pw_gather_p                        747 12.8    8.387    8.934    8.387    8.934
 transfer_pw2rs                     376 11.6    0.005    0.006    8.302    8.325
 mp_waitany                        9040 12.5    7.472    7.776    7.472    7.776
 integrate_four_center_main          75 11.0    0.067    0.129    7.411    7.674
 integrate_four_center_bin         7244 12.0    7.344    7.589    7.344    7.589
 pw_derive                          669 12.3    7.313    7.528    7.313    7.528
 transfer_rs2pw                     376  9.4    0.005    0.006    7.073    7.263
 -------------------------------------------------------------------------------

 The number of warnings for this run is : 4
 
 -------------------------------------------------------------------------------
  **** **** ******  **  PROGRAM ENDED AT                 2024-12-02 15:59:27.033
 ***** ** ***  *** **   PROGRAM RAN ON                              i01r03c04s07
 **    ****   ******    PROGRAM RAN BY                                   di75qec
 ***** **    ** ** **   PROGRAM PROCESS ID                                690710
  **** **  *******  **  PROGRAM STOPPED IN /hppfs/scratch/09/di75qec/Hexatriene_
                                           scf.4142580
