 DBCSR| CPU Multiplication driver                                           XSMM (U)
 DBCSR| Multrec recursion limit                                              512 (U)
 DBCSR| Multiplication stack size                                           1000 (D)
 DBCSR| Maximum elements for images                                    UNLIMITED (U)
 DBCSR| Multiplicative factor virtual images                                   1 (U)
 DBCSR| Use multiplication densification                                       T (D)
 DBCSR| Multiplication size stacks                                             3 (U)
 DBCSR| Use memory pool for CPU allocation                                     F (U)
 DBCSR| Number of 3D layers                                               SINGLE (U)
 DBCSR| Use MPI memory allocation                                              F (U)
 DBCSR| Use RMA algorithm                                                      F (U)
 DBCSR| Use Communication thread                                               T (U)
 DBCSR| Communication thread load                                             79 (D)
 DBCSR| MPI: My process id                                                     0
 DBCSR| MPI: Number of processes                                              16
 DBCSR| OMP: Current number of threads                                         3
 DBCSR| OMP: Max number of threads                                             3
 DBCSR| Split modifier for TAS multiplication algorithm                  1.0E+00 (U)


  **** **** ******  **  PROGRAM STARTED AT               2025-01-27 14:13:09.382
 ***** ** ***  *** **   PROGRAM STARTED ON                          i05r11c03s08
 **    ****   ******    PROGRAM STARTED BY                               di75qec
 ***** **    ** ** **   PROGRAM PROCESS ID                               1265543
  **** **  *******  **  PROGRAM STARTED IN /hppfs/scratch/09/di75qec/Pyrazine_sc
                                           f.4256193

 CP2K| version string:                 CP2K version 2025.1 (Development Version)
 CP2K| source code revision number:                                  git:521e606
 CP2K| cp2kflags: omp libint fftw3 libxc parallel scalapack xsmm max_contr=4    
 CP2K| is freely available from                            https://www.cp2k.org/
 CP2K| Program compiled at                       Fri 24 Jan 2025 03:07:07 PM CET
 CP2K| Program compiled on                                               login03
 CP2K| Program compiled for                                        Supermuc-foss
 CP2K| Data directory path               /dss/dsshome1/09/di75qec/CP2K-foss/data
 CP2K| Input file name                                                   scf.inp

 GLOBAL| Force Environment number                                              1
 GLOBAL| Basis set file name                                         aug-cc-pvdz
 GLOBAL| Potential file name                                      ALL_POTENTIALS
 GLOBAL| MM Potential file name                                     MM_POTENTIAL
 GLOBAL| Coordinate file name                                          coord.xyz
 GLOBAL| Method name                                                        CP2K
 GLOBAL| Project name                                                   Pyrazine
 GLOBAL| Run type                                                 RT_PROPAGATION
 GLOBAL| FFT library                                                       FFTW3
 GLOBAL| Diagonalization library                                       ScaLAPACK
 GLOBAL| DGEMM library                                                      BLAS
 GLOBAL| Orthonormality check for eigenvectors                          DISABLED
 GLOBAL| Matrix multiplication library                                 ScaLAPACK
 GLOBAL| All-to-all communication in single precision                          F
 GLOBAL| FFTs using library dependent lengths                                  F
 GLOBAL| Grid backend                                                       AUTO
 GLOBAL| Global print level                                               MEDIUM
 GLOBAL| MPI I/O enabled                                                       T
 GLOBAL| Total number of message passing processes                            16
 GLOBAL| Number of threads for this process                                    3
 GLOBAL| This output is from process                                           0
 GLOBAL| OpenMP stack size per thread (OMP_STACKSIZE)                    default
 GLOBAL| CPU model name             Intel(R) Xeon(R) Platinum 8174 CPU @ 3.10GHz
 GLOBAL| CPUID                                                              1003
 GLOBAL| Compiled for CPUID                                                    0

 *** HINT in environment.F:928 :: The compiler target flags (generic) used ***
 *** to build this binary cannot exploit all extensions of this CPU model  ***
 *** (x86_avx512). Consider compiler target flags as part of FCFLAGS and   ***
 *** CFLAGS (ARCH file).                                                   ***


 MEMORY| system memory details [Kb]
 MEMORY|                        rank 0           min           max       average
 MEMORY| MemTotal             98436660      98436660      98436660      98436660
 MEMORY| MemFree              84219236      84219236      84219236      84219236
 MEMORY| Buffers                     0             0             0             0
 MEMORY| Cached                2363108       2363108       2363108       2363108
 MEMORY| Slab                  1235404       1235404       1235404       1235404
 MEMORY| SReclaimable           268912        268912        268912        268912
 MEMORY| MemLikelyFree        86851256      86851256      86851256      86851256


 *** Fundamental physical constants (SI units) ***

 *** Literature: B. J. Mohr and B. N. Taylor,
 ***             CODATA recommended values of the fundamental physical
 ***             constants: 2006, Web Version 5.1
 ***             http://physics.nist.gov/constants

 Speed of light in vacuum [m/s]                             2.99792458000000E+08
 Magnetic constant or permeability of vacuum [N/A**2]       1.25663706143592E-06
 Electric constant or permittivity of vacuum [F/m]          8.85418781762039E-12
 Planck constant (h) [J*s]                                  6.62606896000000E-34
 Planck constant (h-bar) [J*s]                              1.05457162825177E-34
 Elementary charge [C]                                      1.60217648700000E-19
 Electron mass [kg]                                         9.10938215000000E-31
 Electron g factor [ ]                                     -2.00231930436220E+00
 Proton mass [kg]                                           1.67262163700000E-27
 Fine-structure constant                                    7.29735253760000E-03
 Rydberg constant [1/m]                                     1.09737315685270E+07
 Avogadro constant [1/mol]                                  6.02214179000000E+23
 Boltzmann constant [J/K]                                   1.38065040000000E-23
 Atomic mass unit [kg]                                      1.66053878200000E-27
 Bohr radius [m]                                            5.29177208590000E-11

 *** Conversion factors ***

 [u] -> [a.u.]                                              1.82288848426455E+03
 [Angstrom] -> [Bohr] = [a.u.]                              1.88972613288564E+00
 [a.u.] = [Bohr] -> [Angstrom]                              5.29177208590000E-01
 [a.u.] -> [s]                                              2.41888432650478E-17
 [a.u.] -> [fs]                                             2.41888432650478E-02
 [a.u.] -> [J]                                              4.35974393937059E-18
 [a.u.] -> [N]                                              8.23872205491840E-08
 [a.u.] -> [K]                                              3.15774647902944E+05
 [a.u.] -> [kJ/mol]                                         2.62549961709828E+03
 [a.u.] -> [kcal/mol]                                       6.27509468713739E+02
 [a.u.] -> [Pa]                                             2.94210107994716E+13
 [a.u.] -> [bar]                                            2.94210107994716E+08
 [a.u.] -> [atm]                                            2.90362800883016E+08
 [a.u.] -> [eV]                                             2.72113838565563E+01
 [a.u.] -> [Hz]                                             6.57968392072181E+15
 [a.u.] -> [1/cm] (wave numbers)                            2.19474631370540E+05
 [a.u./Bohr**2] -> [1/cm]                                   5.14048714338585E+03
 

 CELL_TOP| Volume [angstrom^3]:                                      8000.000000
 CELL_TOP| Vector a [angstrom    20.000     0.000     0.000   |a| =    20.000000
 CELL_TOP| Vector b [angstrom     0.000    20.000     0.000   |b| =    20.000000
 CELL_TOP| Vector c [angstrom     0.000     0.000    20.000   |c| =    20.000000
 CELL_TOP| Angle (b,c), alpha [degree]:                                90.000000
 CELL_TOP| Angle (a,c), beta  [degree]:                                90.000000
 CELL_TOP| Angle (a,b), gamma [degree]:                                90.000000
 CELL_TOP| Numerically orthorhombic:                                         YES
 CELL_TOP| Periodicity                                                      NONE

 GENERATE|  Preliminary Number of Bonds generated:                             0
 GENERATE|  Achieved consistency in connectivity generation.

 CELL| Volume [angstrom^3]:                                          8000.000000
 CELL| Vector a [angstrom]:      20.000     0.000     0.000   |a| =    20.000000
 CELL| Vector b [angstrom]:       0.000    20.000     0.000   |b| =    20.000000
 CELL| Vector c [angstrom]:       0.000     0.000    20.000   |c| =    20.000000
 CELL| Angle (b,c), alpha [degree]:                                    90.000000
 CELL| Angle (a,c), beta  [degree]:                                    90.000000
 CELL| Angle (a,b), gamma [degree]:                                    90.000000
 CELL| Numerically orthorhombic:                                             YES
 CELL| Periodicity                                                          NONE

 CELL_REF| Volume [angstrom^3]:                                      8000.000000
 CELL_REF| Vector a [angstrom    20.000     0.000     0.000   |a| =    20.000000
 CELL_REF| Vector b [angstrom     0.000    20.000     0.000   |b| =    20.000000
 CELL_REF| Vector c [angstrom     0.000     0.000    20.000   |c| =    20.000000
 CELL_REF| Angle (b,c), alpha [degree]:                                90.000000
 CELL_REF| Angle (a,c), beta  [degree]:                                90.000000
 CELL_REF| Angle (a,b), gamma [degree]:                                90.000000
 CELL_REF| Numerically orthorhombic:                                         YES
 CELL_REF| Periodicity                                                      NONE

 *******************************************************************************
 *******************************************************************************
 **                                                                           **
 **     #####                         ##              ##                      **
 **    ##   ##            ##          ##              ##                      **
 **   ##     ##                       ##            ######                    **
 **   ##     ##  ##   ##  ##   #####  ##  ##   ####   ##    #####    #####    **
 **   ##     ##  ##   ##  ##  ##      ## ##   ##      ##   ##   ##  ##   ##   **
 **   ##  ## ##  ##   ##  ##  ##      ####     ###    ##   ######   ######    **
 **    ##  ###   ##   ##  ##  ##      ## ##      ##   ##   ##       ##        **
 **     #######   #####   ##   #####  ##  ##  ####    ##    #####   ##        **
 **           ##                                                    ##        **
 **                                                                           **
 **                                                ... make the atoms dance   **
 **                                                                           **
 **            Copyright (C) by CP2K developers group (2000-2025)             **
 **                      J. Chem. Phys. 152, 194103 (2020)                    **
 **                                                                           **
 *******************************************************************************

 DFT| Spin restricted Kohn-Sham (RKS) calculation                            RKS
 DFT| Multiplicity                                                             1
 DFT| Number of spin states                                                    1
 DFT| Charge                                                                   0
 DFT| Self-interaction correction (SIC)                                       NO
 DFT| Cutoffs: density                                              1.000000E-10
 DFT|          gradient                                             1.000000E-10
 DFT|          tau                                                  1.000000E-10
 DFT|          cutoff_smoothing_range                               0.000000E+00
 DFT| XC density smoothing                                                  NONE
 DFT| XC derivatives                                                          PW

 FUNCTIONAL| PBE:
 FUNCTIONAL| J.P.Perdew, K.Burke, M.Ernzerhof, Phys. Rev. Letter, vol. 77, n 18,
 FUNCTIONAL|  pp. 3865-3868, (1996)sx=0.750sc=1.000{spin unpolarized}           


 QS| Method:                                                                GAPW
 QS| Density plane wave grid type                        NON-SPHERICAL FULLSPACE
 QS| Number of grid levels:                                                    4
 QS| Density cutoff [a.u.]:                                                300.0
 QS| Multi grid cutoff [a.u.]: 1) grid level                               300.0
 QS|                           2) grid level                               100.0
 QS|                           3) grid level                                33.3
 QS|                           4) grid level                                11.1
 QS| Grid level progression factor:                                          3.0
 QS| Relative density cutoff [a.u.]:                                        30.0
 QS| Interaction thresholds: eps_pgf_orb:                                1.0E-05
 QS|                         eps_filter_matrix:                          0.0E+00
 QS|                         eps_core_charge:                            1.0E-12
 QS|                         eps_rho_gspace:                             1.0E-10
 QS|                         eps_rho_rspace:                             1.0E-10
 QS|                         eps_gvg_rspace:                             1.0E-05
 QS|                         eps_ppl:                                    1.0E-02
 QS|                         eps_ppnl:                                   1.0E-07
 QS| GAPW|      One center basis from orbital basis primitives
 QS| GAPW|                   eps_fit:                                    1.0E-04
 QS| GAPW|                   eps_iso:                                    1.0E-12
 QS| GAPW|                   eps_svd:                                    1.0E-08
 QS| GAPW|                   eps_cpc:                                    1.0E-10
 QS| GAPW|   atom-r-grid: quadrature:                                     GC_LOG
 QS| GAPW|      atom-s-grid:  max l :                                          4
 QS| GAPW|      max_l_rho0 :                                                   2


 ATOMIC KIND INFORMATION

  1. Atomic kind: H                                     Number of atoms:       4

     Orbital Basis Set                                               aug-cc-pvdz

       Number of orbital shell sets:                                           4
       Number of orbital shells:                                               5
       Number of primitive Cartesian functions:                                7
       Number of Cartesian basis functions:                                    9
       Number of spherical basis functions:                                    9
       Norm type:                                                              2

       Normalised Cartesian orbitals:

                        Set   Shell   Orbital            Exponent    Coefficient

                          1       1    1s               13.010000       0.096107
                                                         1.962000       0.163020
                                                         0.444600       0.185545
                                                         0.122000       0.073744

                          1       2    2s               13.010000       0.000000
                                                         1.962000       0.000000
                                                         0.444600       0.000000
                                                         0.122000       0.147123

                          2       1    1s                0.029740       0.051041

                          3       1    1px               0.727000       0.956881
                          3       1    1py               0.727000       0.956881
                          3       1    1pz               0.727000       0.956881

                          4       1    1px               0.141000       0.123158
                          4       1    1py               0.141000       0.123158
                          4       1    1pz               0.141000       0.123158

     RI Auxiliary Basis Set                                    aug-cc-pvtz-rifit

       Number of orbital shell sets:                                          14
       Number of orbital shells:                                              14
       Number of primitive Cartesian functions:                               14
       Number of Cartesian basis functions:                                   55
       Number of spherical basis functions:                                   46
       Norm type:                                                              2

       Normalised Cartesian orbitals:

                        Set   Shell   Orbital            Exponent    Coefficient

                          1       1    1s                8.512828       3.551939

                          2       1    1s                1.873089       1.141114

                          3       1    1s                0.526184       0.440315

                          4       1    1s                0.289740       0.281460

                          5       1    1s                0.127194       0.151796

                          6       1    1px               2.372549       4.197195
                          6       1    1py               2.372549       4.197195
                          6       1    1pz               2.372549       4.197195

                          7       1    1px               1.180408       1.753802
                          7       1    1py               1.180408       1.753802
                          7       1    1pz               1.180408       1.753802

                          8       1    1px               0.603822       0.758711
                          8       1    1py               0.603822       0.758711
                          8       1    1pz               0.603822       0.758711

                          9       1    1px               0.235513       0.233861
                          9       1    1py               0.235513       0.233861
                          9       1    1pz               0.235513       0.233861

                         10       1    1dx2              1.809637       4.647235
                         10       1    1dxy              1.809637       8.049248
                         10       1    1dxz              1.809637       8.049248
                         10       1    1dy2              1.809637       4.647235
                         10       1    1dyz              1.809637       8.049248
                         10       1    1dz2              1.809637       4.647235

                         11       1    1dx2              1.143973       2.082748
                         11       1    1dxy              1.143973       3.607426
                         11       1    1dxz              1.143973       3.607426
                         11       1    1dy2              1.143973       2.082748
                         11       1    1dyz              1.143973       3.607426
                         11       1    1dz2              1.143973       2.082748

                         12       1    1dx2              0.436654       0.386056
                         12       1    1dxy              0.436654       0.668668
                         12       1    1dxz              0.436654       0.668668
                         12       1    1dy2              0.436654       0.386056
                         12       1    1dyz              0.436654       0.668668
                         12       1    1dz2              0.436654       0.386056

                         13       1    1fx3              1.806306       5.568458
                         13       1    1fx2y             1.806306      12.451451
                         13       1    1fx2z             1.806306      12.451451
                         13       1    1fxy2             1.806306      12.451451
                         13       1    1fxyz             1.806306      21.566546
                         13       1    1fxz2             1.806306      12.451451
                         13       1    1fy3              1.806306       5.568458
                         13       1    1fy2z             1.806306      12.451451
                         13       1    1fyz2             1.806306      12.451451
                         13       1    1fz3              1.806306       5.568458

                         14       1    1fx3              0.252978       0.066817
                         14       1    1fx2y             0.252978       0.149408
                         14       1    1fx2z             0.252978       0.149408
                         14       1    1fxy2             0.252978       0.149408
                         14       1    1fxyz             0.252978       0.258783
                         14       1    1fxz2             0.252978       0.149408
                         14       1    1fy3              0.252978       0.066817
                         14       1    1fy2z             0.252978       0.149408
                         14       1    1fyz2             0.252978       0.149408
                         14       1    1fz3              0.252978       0.066817

       Atomic covalent radius [Angstrom]:                                  0.320

       Atomic van der Waals radius [Angstrom]:                             1.090

     The atoms of this atomic kind are PAW atoms (GAPW):
       Hard Gaussian function radius:                                      1.200
       Rho0 radius:                                                        1.200
       Maximum GTO radius used for PAW projector construction:            24.566

     GAPW Soft Basis Set                                        aug-cc-pvdz_soft

       Number of orbital shell sets:                                           4
       Number of orbital shells:                                               5
       Number of primitive Cartesian functions:                                6
       Number of Cartesian basis functions:                                    9
       Number of spherical basis functions:                                    9
       Norm type:                                                              2

       Normalised Cartesian orbitals:

                        Set   Shell   Orbital            Exponent    Coefficient

                          1       1    1s                1.962000       0.163020
                                                         0.444600       0.185545
                                                         0.122000       0.073744

                          1       2    2s                1.962000       0.000000
                                                         0.444600       0.000000
                                                         0.122000       0.147123

                          2       1    1s                0.029740       0.051041

                          3       1    1px               0.727000       0.956881
                          3       1    1py               0.727000       0.956881
                          3       1    1pz               0.727000       0.956881

                          4       1    1px               0.141000       0.123158
                          4       1    1py               0.141000       0.123158
                          4       1    1pz               0.141000       0.123158

     AE Potential information for                                            ALL

       Description:                                       All-electron potential
                                          Krack, Parrinello, PCCP 2, 2105 (2000)

       Gaussian exponent of the core charge distribution:              12.500000
       Electronic configuration (s p d ...):                           1   0   0

  2. Atomic kind: C                                     Number of atoms:       4

     Orbital Basis Set                                               aug-cc-pvdz

       Number of orbital shell sets:                                           6
       Number of orbital shells:                                               9
       Number of primitive Cartesian functions:                               17
       Number of Cartesian basis functions:                                   25
       Number of spherical basis functions:                                   23
       Norm type:                                                              2

       Normalised Cartesian orbitals:

                        Set   Shell   Orbital            Exponent    Coefficient

                          1       1    1s             6665.000000       0.363803
                                                      1000.000000       0.675392
                                                       228.000000       1.132301
                                                        64.710000       1.654004
                                                        21.060000       1.924978
                                                         7.495000       1.448149
                                                         2.797000       0.439427
                                                         0.521500       0.006650
                                                         0.159600      -0.000574

                          1       2    2s             6665.000000      -0.076756
                                                      1000.000000      -0.146257
                                                       228.000000      -0.239407
                                                        64.710000      -0.379069
                                                        21.060000      -0.448104
                                                         7.495000      -0.484201
                                                         2.797000      -0.196168
                                                         0.521500       0.238162
                                                         0.159600       0.104468

                          1       3    3s             6665.000000       0.000000
                                                      1000.000000       0.000000
                                                       228.000000       0.000000
                                                        64.710000       0.000000
                                                        21.060000       0.000000
                                                         7.495000       0.000000
                                                         2.797000       0.000000
                                                         0.521500       0.000000
                                                         0.159600       0.179964

                          2       1    1s                0.046900       0.071827

                          3       1    1px               9.439000       0.898722
                                                         2.002000       0.711071
                                                         0.545600       0.339917
                                                         0.151700       0.063270
                          3       1    1py               9.439000       0.898722
                                                         2.002000       0.711071
                                                         0.545600       0.339917
                                                         0.151700       0.063270
                          3       1    1pz               9.439000       0.898722
                                                         2.002000       0.711071
                                                         0.545600       0.339917
                                                         0.151700       0.063270

                          3       2    2px               9.439000       0.000000
                                                         2.002000       0.000000
                                                         0.545600       0.000000
                                                         0.151700       0.134950
                          3       2    2py               9.439000       0.000000
                                                         2.002000       0.000000
                                                         0.545600       0.000000
                                                         0.151700       0.134950
                          3       2    2pz               9.439000       0.000000
                                                         2.002000       0.000000
                                                         0.545600       0.000000
                                                         0.151700       0.134950

                          4       1    1px               0.040410       0.025826
                          4       1    1py               0.040410       0.025826
                          4       1    1pz               0.040410       0.025826

                          5       1    1dx2              0.550000       0.578155
                          5       1    1dxy              0.550000       1.001394
                          5       1    1dxz              0.550000       1.001394
                          5       1    1dy2              0.550000       0.578155
                          5       1    1dyz              0.550000       1.001394
                          5       1    1dz2              0.550000       0.578155

                          6       1    1dx2              0.151000       0.060203
                          6       1    1dxy              0.151000       0.104275
                          6       1    1dxz              0.151000       0.104275
                          6       1    1dy2              0.151000       0.060203
                          6       1    1dyz              0.151000       0.104275
                          6       1    1dz2              0.151000       0.060203

     RI Auxiliary Basis Set                                    aug-cc-pvtz-rifit

       Number of orbital shell sets:                                          28
       Number of orbital shells:                                              28
       Number of primitive Cartesian functions:                               28
       Number of Cartesian basis functions:                                  136
       Number of spherical basis functions:                                  106
       Norm type:                                                              2

       Normalised Cartesian orbitals:

                        Set   Shell   Orbital            Exponent    Coefficient

                          1       1    1s              280.556612      48.856851

                          2       1    1s               60.230247      15.408880

                          3       1    1s               22.116651       7.268581

                          4       1    1s                6.862093       3.021708

                          5       1    1s                1.562255       0.995919

                          6       1    1s                0.912450       0.665376

                          7       1    1s                0.502749       0.425524

                          8       1    1s                0.215823       0.225675

                          9       1    1s                0.101536       0.128196

                         10       1    1px              24.231865      76.634379
                         10       1    1py              24.231865      76.634379
                         10       1    1pz              24.231865      76.634379

                         11       1    1px               6.476451      14.726905
                         11       1    1py               6.476451      14.726905
                         11       1    1pz               6.476451      14.726905

                         12       1    1px               2.129088       3.665914
                         12       1    1py               2.129088       3.665914
                         12       1    1pz               2.129088       3.665914

                         13       1    1px               1.037564       1.492652
                         13       1    1py               1.037564       1.492652
                         13       1    1pz               1.037564       1.492652

                         14       1    1px               0.549413       0.674238
                         14       1    1py               0.549413       0.674238
                         14       1    1pz               0.549413       0.674238

                         15       1    1px               0.281527       0.292307
                         15       1    1py               0.281527       0.292307
                         15       1    1pz               0.281527       0.292307

                         16       1    1px               0.115060       0.095520
                         16       1    1py               0.115060       0.095520
                         16       1    1pz               0.115060       0.095520

                         17       1    1dx2              9.718981      88.053322
                         17       1    1dxy              9.718981     152.512828
                         17       1    1dxz              9.718981     152.512828
                         17       1    1dy2              9.718981      88.053322
                         17       1    1dyz              9.718981     152.512828
                         17       1    1dz2              9.718981      88.053322

                         18       1    1dx2              3.035148      11.487463
                         18       1    1dxy              3.035148      19.896869
                         18       1    1dxz              3.035148      19.896869
                         18       1    1dy2              3.035148      11.487463
                         18       1    1dyz              3.035148      19.896869
                         18       1    1dz2              3.035148      11.487463

                         19       1    1dx2              1.467774       3.221535
                         19       1    1dxy              1.467774       5.579863
                         19       1    1dxz              1.467774       5.579863
                         19       1    1dy2              1.467774       3.221535
                         19       1    1dyz              1.467774       5.579863
                         19       1    1dz2              1.467774       3.221535

                         20       1    1dx2              0.573708       0.622471
                         20       1    1dxy              0.573708       1.078151
                         20       1    1dxz              0.573708       1.078151
                         20       1    1dy2              0.573708       0.622471
                         20       1    1dyz              0.573708       1.078151
                         20       1    1dz2              0.573708       0.622471

                         21       1    1dx2              0.290556       0.189261
                         21       1    1dxy              0.290556       0.327810
                         21       1    1dxz              0.290556       0.327810
                         21       1    1dy2              0.290556       0.189261
                         21       1    1dyz              0.290556       0.327810
                         21       1    1dz2              0.290556       0.189261

                         22       1    1dx2              0.148905       0.058749
                         22       1    1dxy              0.148905       0.101756
                         22       1    1dxz              0.148905       0.101756
                         22       1    1dy2              0.148905       0.058749
                         22       1    1dyz              0.148905       0.101756
                         22       1    1dz2              0.148905       0.058749

                         23       1    1fx3              2.275620       9.363300
                         23       1    1fx2y             2.275620      20.936975
                         23       1    1fx2z             2.275620      20.936975
                         23       1    1fxy2             2.275620      20.936975
                         23       1    1fxyz             2.275620      36.263904
                         23       1    1fxz2             2.275620      20.936975
                         23       1    1fy3              2.275620       9.363300
                         23       1    1fy2z             2.275620      20.936975
                         23       1    1fyz2             2.275620      20.936975
                         23       1    1fz3              2.275620       9.363300

                         24       1    1fx3              1.196890       2.205852
                         24       1    1fx2y             1.196890       4.932435
                         24       1    1fx2z             1.196890       4.932435
                         24       1    1fxy2             1.196890       4.932435
                         24       1    1fxyz             1.196890       8.543228
                         24       1    1fxz2             1.196890       4.932435
                         24       1    1fy3              1.196890       2.205852
                         24       1    1fy2z             1.196890       4.932435
                         24       1    1fyz2             1.196890       4.932435
                         24       1    1fz3              1.196890       2.205852

                         25       1    1fx3              0.541575       0.370413
                         25       1    1fx2y             0.541575       0.828268
                         25       1    1fx2z             0.541575       0.828268
                         25       1    1fxy2             0.541575       0.828268
                         25       1    1fxyz             0.541575       1.434603
                         25       1    1fxz2             0.541575       0.828268
                         25       1    1fy3              0.541575       0.370413
                         25       1    1fy2z             0.541575       0.828268
                         25       1    1fyz2             0.541575       0.828268
                         25       1    1fz3              0.541575       0.370413

                         26       1    1fx3              0.201793       0.040178
                         26       1    1fx2y             0.201793       0.089842
                         26       1    1fx2z             0.201793       0.089842
                         26       1    1fxy2             0.201793       0.089842
                         26       1    1fxyz             0.201793       0.155610
                         26       1    1fxz2             0.201793       0.089842
                         26       1    1fy3              0.201793       0.040178
                         26       1    1fy2z             0.201793       0.089842
                         26       1    1fyz2             0.201793       0.089842
                         26       1    1fz3              0.201793       0.040178

                         27       1    1gx4              1.216610       1.908103
                         27       1    1gx3y             1.216610       5.048367
                         27       1    1gx3z             1.216610       5.048367
                         27       1    1gx2y2            1.216610       6.517414
                         27       1    1gx2yz            1.216610      11.288491
                         27       1    1gx2z2            1.216610       6.517414
                         27       1    1gxy3             1.216610       5.048367
                         27       1    1gxy2z            1.216610      11.288491
                         27       1    1gxyz2            1.216610      11.288491
                         27       1    1gxz3             1.216610       5.048367
                         27       1    1gy4              1.216610       1.908103
                         27       1    1gy3z             1.216610       5.048367
                         27       1    1gy2z2            1.216610       6.517414
                         27       1    1gyz3             1.216610       5.048367
                         27       1    1gz4              1.216610       1.908103

                         28       1    1gx4              0.435998       0.113505
                         28       1    1gx3y             0.435998       0.300307
                         28       1    1gx3z             0.435998       0.300307
                         28       1    1gx2y2            0.435998       0.387695
                         28       1    1gx2yz            0.435998       0.671507
                         28       1    1gx2z2            0.435998       0.387695
                         28       1    1gxy3             0.435998       0.300307
                         28       1    1gxy2z            0.435998       0.671507
                         28       1    1gxyz2            0.435998       0.671507
                         28       1    1gxz3             0.435998       0.300307
                         28       1    1gy4              0.435998       0.113505
                         28       1    1gy3z             0.435998       0.300307
                         28       1    1gy2z2            0.435998       0.387695
                         28       1    1gyz3             0.435998       0.300307
                         28       1    1gz4              0.435998       0.113505

       Atomic covalent radius [Angstrom]:                                  0.770

       Atomic van der Waals radius [Angstrom]:                             1.700

     The atoms of this atomic kind are PAW atoms (GAPW):
       Hard Gaussian function radius:                                      1.512
       Rho0 radius:                                                        1.512
       Maximum GTO radius used for PAW projector construction:            24.566

     GAPW Soft Basis Set                                        aug-cc-pvdz_soft

       Number of orbital shell sets:                                           6
       Number of orbital shells:                                               9
       Number of primitive Cartesian functions:                               10
       Number of Cartesian basis functions:                                   25
       Number of spherical basis functions:                                   23
       Norm type:                                                              2

       Normalised Cartesian orbitals:

                        Set   Shell   Orbital            Exponent    Coefficient

                          1       1    1s                2.797000       0.439427
                                                         0.521500       0.006650
                                                         0.159600      -0.000574

                          1       2    2s                2.797000      -0.196168
                                                         0.521500       0.238162
                                                         0.159600       0.104468

                          1       3    3s                2.797000       0.000000
                                                         0.521500       0.000000
                                                         0.159600       0.179964

                          2       1    1s                0.046900       0.071827

                          3       1    1px               2.002000       0.711071
                                                         0.545600       0.339917
                                                         0.151700       0.063270
                          3       1    1py               2.002000       0.711071
                                                         0.545600       0.339917
                                                         0.151700       0.063270
                          3       1    1pz               2.002000       0.711071
                                                         0.545600       0.339917
                                                         0.151700       0.063270

                          3       2    2px               2.002000       0.000000
                                                         0.545600       0.000000
                                                         0.151700       0.134950
                          3       2    2py               2.002000       0.000000
                                                         0.545600       0.000000
                                                         0.151700       0.134950
                          3       2    2pz               2.002000       0.000000
                                                         0.545600       0.000000
                                                         0.151700       0.134950

                          4       1    1px               0.040410       0.025826
                          4       1    1py               0.040410       0.025826
                          4       1    1pz               0.040410       0.025826

                          5       1    1dx2              0.550000       0.578155
                          5       1    1dxy              0.550000       1.001394
                          5       1    1dxz              0.550000       1.001394
                          5       1    1dy2              0.550000       0.578155
                          5       1    1dyz              0.550000       1.001394
                          5       1    1dz2              0.550000       0.578155

                          6       1    1dx2              0.151000       0.060203
                          6       1    1dxy              0.151000       0.104275
                          6       1    1dxz              0.151000       0.104275
                          6       1    1dy2              0.151000       0.060203
                          6       1    1dyz              0.151000       0.104275
                          6       1    1dz2              0.151000       0.060203

     AE Potential information for                                            ALL

       Description:                                       All-electron potential
                                          Krack, Parrinello, PCCP 2, 2105 (2000)

       Gaussian exponent of the core charge distribution:               4.109048
       Electronic configuration (s p d ...):                           4   2   0

  3. Atomic kind: N                                     Number of atoms:       2

     Orbital Basis Set                                               aug-cc-pvdz

       Number of orbital shell sets:                                           6
       Number of orbital shells:                                               9
       Number of primitive Cartesian functions:                               17
       Number of Cartesian basis functions:                                   25
       Number of spherical basis functions:                                   23
       Norm type:                                                              2

       Normalised Cartesian orbitals:

                        Set   Shell   Orbital            Exponent    Coefficient

                          1       1    1s             9046.000000       0.462754
                                                      1357.000000       0.858723
                                                       309.300000       1.440591
                                                        87.730000       2.108533
                                                        28.560000       2.454153
                                                        10.210000       1.825915
                                                         3.838000       0.543758
                                                         0.746600       0.008838
                                                         0.224800      -0.000666

                          1       2    2s             9046.000000      -0.101145
                                                      1357.000000      -0.192492
                                                       309.300000      -0.314968
                                                        87.730000      -0.501437
                                                        28.560000      -0.593976
                                                        10.210000      -0.643503
                                                         3.838000      -0.238093
                                                         0.746600       0.314268
                                                         0.224800       0.134678

                          1       3    3s             9046.000000       0.000000
                                                      1357.000000       0.000000
                                                       309.300000       0.000000
                                                        87.730000       0.000000
                                                        28.560000       0.000000
                                                        10.210000       0.000000
                                                         3.838000       0.000000
                                                         0.746600       0.000000
                                                         0.224800       0.232679

                          2       1    1s                0.061240       0.087738

                          3       1    1px              13.550000       1.479258
                                                         2.917000       1.180072
                                                         0.797300       0.548036
                                                         0.218500       0.098423
                          3       1    1py              13.550000       1.479258
                                                         2.917000       1.180072
                                                         0.797300       0.548036
                                                         0.218500       0.098423
                          3       1    1pz              13.550000       1.479258
                                                         2.917000       1.180072
                                                         0.797300       0.548036
                                                         0.218500       0.098423

                          3       2    2px              13.550000       0.000000
                                                         2.917000       0.000000
                                                         0.797300       0.000000
                                                         0.218500       0.212939
                          3       2    2py              13.550000       0.000000
                                                         2.917000       0.000000
                                                         0.797300       0.000000
                                                         0.218500       0.212939
                          3       2    2pz              13.550000       0.000000
                                                         2.917000       0.000000
                                                         0.797300       0.000000
                                                         0.218500       0.212939

                          4       1    1px               0.056110       0.038926
                          4       1    1py               0.056110       0.038926
                          4       1    1pz               0.056110       0.038926

                          5       1    1dx2              0.817000       1.155575
                          5       1    1dxy              0.817000       2.001514
                          5       1    1dxz              0.817000       2.001514
                          5       1    1dy2              0.817000       1.155575
                          5       1    1dyz              0.817000       2.001514
                          5       1    1dz2              0.817000       1.155575

                          6       1    1dx2              0.230000       0.125728
                          6       1    1dxy              0.230000       0.217768
                          6       1    1dxz              0.230000       0.217768
                          6       1    1dy2              0.230000       0.125728
                          6       1    1dyz              0.230000       0.217768
                          6       1    1dz2              0.230000       0.125728

     RI Auxiliary Basis Set                                    aug-cc-pvtz-rifit

       Number of orbital shell sets:                                          28
       Number of orbital shells:                                              28
       Number of primitive Cartesian functions:                               28
       Number of Cartesian basis functions:                                  136
       Number of spherical basis functions:                                  106
       Norm type:                                                              2

       Normalised Cartesian orbitals:

                        Set   Shell   Orbital            Exponent    Coefficient

                          1       1    1s              287.509269      49.762132

                          2       1    1s               64.276031      16.178821

                          3       1    1s               21.681924       7.161161

                          4       1    1s                7.906874       3.360576

                          5       1    1s                2.431967       1.387965

                          6       1    1s                1.222668       0.828689

                          7       1    1s                0.766748       0.583982

                          8       1    1s                0.311588       0.297232

                          9       1    1s                0.101097       0.127781

                         10       1    1px              34.965027     121.194365
                         10       1    1py              34.965027     121.194365
                         10       1    1pz              34.965027     121.194365

                         11       1    1px              10.323897      26.378169
                         11       1    1py              10.323897      26.378169
                         11       1    1pz              10.323897      26.378169

                         12       1    1px               2.898158       5.390049
                         12       1    1py               2.898158       5.390049
                         12       1    1pz               2.898158       5.390049

                         13       1    1px               1.407740       2.185714
                         13       1    1py               1.407740       2.185714
                         13       1    1pz               1.407740       2.185714

                         14       1    1px               0.850834       1.164786
                         14       1    1py               0.850834       1.164786
                         14       1    1pz               0.850834       1.164786

                         15       1    1px               0.373533       0.416247
                         15       1    1py               0.373533       0.416247
                         15       1    1pz               0.373533       0.416247

                         16       1    1px               0.148102       0.130961
                         16       1    1py               0.148102       0.130961
                         16       1    1pz               0.148102       0.130961

                         17       1    1dx2             13.908637     164.876008
                         17       1    1dxy             13.908637     285.573622
                         17       1    1dxz             13.908637     285.573622
                         17       1    1dy2             13.908637     164.876008
                         17       1    1dyz             13.908637     285.573622
                         17       1    1dz2             13.908637     164.876008

                         18       1    1dx2              4.584723      23.643264
                         18       1    1dxy              4.584723      40.951334
                         18       1    1dxz              4.584723      40.951334
                         18       1    1dy2              4.584723      23.643264
                         18       1    1dyz              4.584723      40.951334
                         18       1    1dz2              4.584723      23.643264

                         19       1    1dx2              2.210185       6.594160
                         19       1    1dxy              2.210185      11.421421
                         19       1    1dxz              2.210185      11.421421
                         19       1    1dy2              2.210185       6.594160
                         19       1    1dyz              2.210185      11.421421
                         19       1    1dz2              2.210185       6.594160

                         20       1    1dx2              0.837683       1.207255
                         20       1    1dxy              0.837683       2.091027
                         20       1    1dxz              0.837683       2.091027
                         20       1    1dy2              0.837683       1.207255
                         20       1    1dyz              0.837683       2.091027
                         20       1    1dz2              0.837683       1.207255

                         21       1    1dx2              0.419484       0.359883
                         21       1    1dxy              0.419484       0.623335
                         21       1    1dxz              0.419484       0.623335
                         21       1    1dy2              0.419484       0.359883
                         21       1    1dyz              0.419484       0.623335
                         21       1    1dz2              0.419484       0.359883

                         22       1    1dx2              0.134106       0.048916
                         22       1    1dxy              0.134106       0.084724
                         22       1    1dxz              0.134106       0.084724
                         22       1    1dy2              0.134106       0.048916
                         22       1    1dyz              0.134106       0.084724
                         22       1    1dz2              0.134106       0.048916

                         23       1    1fx3              3.473067      24.241470
                         23       1    1fx2y             3.473067      54.205574
                         23       1    1fx2z             3.473067      54.205574
                         23       1    1fxy2             3.473067      54.205574
                         23       1    1fxyz             3.473067      93.886808
                         23       1    1fxz2             3.473067      54.205574
                         23       1    1fy3              3.473067      24.241470
                         23       1    1fy2z             3.473067      54.205574
                         23       1    1fyz2             3.473067      54.205574
                         23       1    1fz3              3.473067      24.241470

                         24       1    1fx3              1.558946       3.997832
                         24       1    1fx2y             1.558946       8.939425
                         24       1    1fx2z             1.558946       8.939425
                         24       1    1fxy2             1.558946       8.939425
                         24       1    1fxyz             1.558946      15.483538
                         24       1    1fxz2             1.558946       8.939425
                         24       1    1fy3              1.558946       3.997832
                         24       1    1fy2z             1.558946       8.939425
                         24       1    1fyz2             1.558946       8.939425
                         24       1    1fz3              1.558946       3.997832

                         25       1    1fx3              0.846776       1.012591
                         25       1    1fx2y             0.846776       2.264223
                         25       1    1fx2z             0.846776       2.264223
                         25       1    1fxy2             0.846776       2.264223
                         25       1    1fxyz             0.846776       3.921748
                         25       1    1fxz2             0.846776       2.264223
                         25       1    1fy3              0.846776       1.012591
                         25       1    1fy2z             0.846776       2.264223
                         25       1    1fyz2             0.846776       2.264223
                         25       1    1fz3              0.846776       1.012591

                         26       1    1fx3              0.288587       0.089863
                         26       1    1fx2y             0.288587       0.200939
                         26       1    1fx2z             0.288587       0.200939
                         26       1    1fxy2             0.288587       0.200939
                         26       1    1fxyz             0.288587       0.348036
                         26       1    1fxz2             0.288587       0.200939
                         26       1    1fy3              0.288587       0.089863
                         26       1    1fy2z             0.288587       0.200939
                         26       1    1fyz2             0.288587       0.200939
                         26       1    1fz3              0.288587       0.089863

                         27       1    1gx4              1.776407       5.403523
                         27       1    1gx3y             1.776407      14.296377
                         27       1    1gx3z             1.776407      14.296377
                         27       1    1gx2y2            1.776407      18.456544
                         27       1    1gx2yz            1.776407      31.967672
                         27       1    1gx2z2            1.776407      18.456544
                         27       1    1gxy3             1.776407      14.296377
                         27       1    1gxy2z            1.776407      31.967672
                         27       1    1gxyz2            1.776407      31.967672
                         27       1    1gxz3             1.776407      14.296377
                         27       1    1gy4              1.776407       5.403523
                         27       1    1gy3z             1.776407      14.296377
                         27       1    1gy2z2            1.776407      18.456544
                         27       1    1gyz3             1.776407      14.296377
                         27       1    1gz4              1.776407       5.403523

                         28       1    1gx4              0.599812       0.272883
                         28       1    1gx3y             0.599812       0.721981
                         28       1    1gx3z             0.599812       0.721981
                         28       1    1gx2y2            0.599812       0.932074
                         28       1    1gx2yz            0.599812       1.614399
                         28       1    1gx2z2            0.599812       0.932074
                         28       1    1gxy3             0.599812       0.721981
                         28       1    1gxy2z            0.599812       1.614399
                         28       1    1gxyz2            0.599812       1.614399
                         28       1    1gxz3             0.599812       0.721981
                         28       1    1gy4              0.599812       0.272883
                         28       1    1gy3z             0.599812       0.721981
                         28       1    1gy2z2            0.599812       0.932074
                         28       1    1gyz3             0.599812       0.721981
                         28       1    1gz4              0.599812       0.272883

       Atomic covalent radius [Angstrom]:                                  0.750

       Atomic van der Waals radius [Angstrom]:                             1.550

     The atoms of this atomic kind are PAW atoms (GAPW):
       Hard Gaussian function radius:                                      1.512
       Rho0 radius:                                                        1.512
       Maximum GTO radius used for PAW projector construction:            24.566

     GAPW Soft Basis Set                                        aug-cc-pvdz_soft

       Number of orbital shell sets:                                           6
       Number of orbital shells:                                               9
       Number of primitive Cartesian functions:                               10
       Number of Cartesian basis functions:                                   25
       Number of spherical basis functions:                                   23
       Norm type:                                                              2

       Normalised Cartesian orbitals:

                        Set   Shell   Orbital            Exponent    Coefficient

                          1       1    1s                3.838000       0.543758
                                                         0.746600       0.008838
                                                         0.224800      -0.000666

                          1       2    2s                3.838000      -0.238093
                                                         0.746600       0.314268
                                                         0.224800       0.134678

                          1       3    3s                3.838000       0.000000
                                                         0.746600       0.000000
                                                         0.224800       0.232679

                          2       1    1s                0.061240       0.087738

                          3       1    1px               2.917000       1.180072
                                                         0.797300       0.548036
                                                         0.218500       0.098423
                          3       1    1py               2.917000       1.180072
                                                         0.797300       0.548036
                                                         0.218500       0.098423
                          3       1    1pz               2.917000       1.180072
                                                         0.797300       0.548036
                                                         0.218500       0.098423

                          3       2    2px               2.917000       0.000000
                                                         0.797300       0.000000
                                                         0.218500       0.212939
                          3       2    2py               2.917000       0.000000
                                                         0.797300       0.000000
                                                         0.218500       0.212939
                          3       2    2pz               2.917000       0.000000
                                                         0.797300       0.000000
                                                         0.218500       0.212939

                          4       1    1px               0.056110       0.038926
                          4       1    1py               0.056110       0.038926
                          4       1    1pz               0.056110       0.038926

                          5       1    1dx2              0.817000       1.155575
                          5       1    1dxy              0.817000       2.001514
                          5       1    1dxz              0.817000       2.001514
                          5       1    1dy2              0.817000       1.155575
                          5       1    1dyz              0.817000       2.001514
                          5       1    1dz2              0.817000       1.155575

                          6       1    1dx2              0.230000       0.125728
                          6       1    1dxy              0.230000       0.217768
                          6       1    1dxz              0.230000       0.217768
                          6       1    1dy2              0.230000       0.125728
                          6       1    1dyz              0.230000       0.217768
                          6       1    1dz2              0.230000       0.125728

     AE Potential information for                                            ALL

       Description:                                       All-electron potential
                                          Krack, Parrinello, PCCP 2, 2105 (2000)

       Gaussian exponent of the core charge distribution:               5.979100
       Electronic configuration (s p d ...):                           4   3   0


 MOLECULE KIND INFORMATION


 All atoms are their own molecule, skipping detailed information


 TOTAL NUMBERS AND MAXIMUM NUMBERS

  Total number of            - Atomic kinds:                                   3
                             - Atoms:                                         10
                             - Shell sets:                                    52
                             - Shells:                                        74
                             - Primitive Cartesian functions:                130
                             - Cartesian basis functions:                    186
                             - Spherical basis functions:                    174

  Maximum angular momentum of the orbital basis functions:                     2


 MODULE QUICKSTEP: ATOMIC COORDINATES IN ANGSTROM

   Atom Kind Element         X             Y             Z       Z(eff)     Mass
      1    1 H     1     10.000000     12.068464     11.258236   1.0000   1.0079
      2    1 H     1     10.000000      7.931536     11.258236   1.0000   1.0079
      3    1 H     1     10.000000     12.068464      8.741764   1.0000   1.0079
      4    1 H     1     10.000000      7.931536      8.741764   1.0000   1.0079
      5    2 C     6     10.000000     11.135920     10.697884   6.0000  12.0107
      6    2 C     6     10.000000      8.864080     10.697884   6.0000  12.0107
      7    2 C     6     10.000000     11.135920      9.302116   6.0000  12.0107
      8    2 C     6     10.000000      8.864080      9.302116   6.0000  12.0107
      9    3 N     7     10.000000     10.000000     11.417402   7.0000  14.0067
     10    3 N     7     10.000000     10.000000      8.582598   7.0000  14.0067



 SCF PARAMETERS         Density guess:                                   RESTART
                        --------------------------------------------------------
                        max_scf:                                             200
                        max_scf_history:                                       0
                        max_diis:                                              4
                        --------------------------------------------------------
                        eps_scf:                                        1.00E-09
                        eps_scf_history:                                0.00E+00
                        eps_diis:                                       1.00E-01
                        eps_eigval:                                     1.00E-05
                        --------------------------------------------------------
                        level_shift [a.u.]:                             0.000000
                        added MOs                                       153    0
                        --------------------------------------------------------
                        Mixing method:                            BROYDEN_MIXING
                                                charge density mixing in g-space
                        --------------------------------------------------------
                        No outer SCF

 PW_GRID| Information for grid number                                          1
 PW_GRID| Grid distributed over                                    16 processors
 PW_GRID| Real space group dimensions                                    16    1
 PW_GRID| the grid is blocked:                                                NO
 PW_GRID| Cutoff [a.u.]                                                    300.0
 PW_GRID| spherical cutoff:                                                   NO
 PW_GRID|   Bounds   1           -150     149                Points:         300
 PW_GRID|   Bounds   2           -150     149                Points:         300
 PW_GRID|   Bounds   3           -150     149                Points:         300
 PW_GRID| Volume element (a.u.^3)  0.2000E-02     Volume (a.u.^3)     53986.6767
 PW_GRID| Grid span                                                    FULLSPACE
 PW_GRID|   Distribution                         Average         Max         Min
 PW_GRID|   G-Vectors                          1687500.0     1687500     1687500
 PW_GRID|   G-Rays                                5625.0        5625        5625
 PW_GRID|   Real Space Points                  1687500.0     1710000     1620000

 PW_GRID| Information for grid number                                          2
 PW_GRID| Number of the reference grid                                         1
 PW_GRID| Grid distributed over                                    16 processors
 PW_GRID| Real space group dimensions                                    16    1
 PW_GRID| the grid is blocked:                                                NO
 PW_GRID| Cutoff [a.u.]                                                    100.0
 PW_GRID| spherical cutoff:                                                   NO
 PW_GRID|   Bounds   1            -90      89                Points:         180
 PW_GRID|   Bounds   2            -90      89                Points:         180
 PW_GRID|   Bounds   3            -90      89                Points:         180
 PW_GRID| Volume element (a.u.^3)  0.9257E-02     Volume (a.u.^3)     53986.6767
 PW_GRID| Grid span                                                    FULLSPACE
 PW_GRID|   Distribution                         Average         Max         Min
 PW_GRID|   G-Vectors                           364500.0      364680      364320
 PW_GRID|   G-Rays                                2025.0        2026        2024
 PW_GRID|   Real Space Points                   364500.0      388800      356400

 PW_GRID| Information for grid number                                          3
 PW_GRID| Number of the reference grid                                         1
 PW_GRID| Grid distributed over                                    16 processors
 PW_GRID| Real space group dimensions                                    16    1
 PW_GRID| the grid is blocked:                                                NO
 PW_GRID| Cutoff [a.u.]                                                     33.3
 PW_GRID| spherical cutoff:                                                   NO
 PW_GRID|   Bounds   1            -50      49                Points:         100
 PW_GRID|   Bounds   2            -50      49                Points:         100
 PW_GRID|   Bounds   3            -50      49                Points:         100
 PW_GRID| Volume element (a.u.^3)  0.5399E-01     Volume (a.u.^3)     53986.6767
 PW_GRID| Grid span                                                    FULLSPACE
 PW_GRID|   Distribution                         Average         Max         Min
 PW_GRID|   G-Vectors                            62500.0       62600       62400
 PW_GRID|   G-Rays                                 625.0         626         624
 PW_GRID|   Real Space Points                    62500.0       70000       60000

 PW_GRID| Information for grid number                                          4
 PW_GRID| Number of the reference grid                                         1
 PW_GRID| Grid distributed over                                    16 processors
 PW_GRID| Real space group dimensions                                    16    1
 PW_GRID| the grid is blocked:                                                NO
 PW_GRID| Cutoff [a.u.]                                                     11.1
 PW_GRID| spherical cutoff:                                                   NO
 PW_GRID|   Bounds   1            -30      29                Points:          60
 PW_GRID|   Bounds   2            -30      29                Points:          60
 PW_GRID|   Bounds   3            -30      29                Points:          60
 PW_GRID| Volume element (a.u.^3)  0.2499         Volume (a.u.^3)     53986.6767
 PW_GRID| Grid span                                                    FULLSPACE
 PW_GRID|   Distribution                         Average         Max         Min
 PW_GRID|   G-Vectors                            13500.0       13560       13440
 PW_GRID|   G-Rays                                 225.0         226         224
 PW_GRID|   Real Space Points                    13500.0       14400       10800

 POISSON| Solver                                                         WAVELET
 POISSON| Wavelet| Scaling function                                           40
 POISSON| Periodicity                                                       NONE

[...]
  HFX_MEM_INFO| Size of buffers [MiB]:                                         0
  HFX_MEM_INFO| Est. max. program size after HFX  [MiB]:                    1564

     1 NoMix/Diag. 0.40E+00    7.4     0.83039453      -265.6038546338 -2.66E+02
     2 Broy./Diag. 0.40E+00    3.1     0.15996845      -261.4243653421  4.18E+00
     3 Broy./Diag. 0.40E+00    3.2     0.18260871      -263.4256803266 -2.00E+00
     4 Broy./Diag. 0.40E+00    3.2     0.03633461      -264.1740806242 -7.48E-01
     5 Broy./Diag. 0.40E+00    3.2     0.03583831      -263.9538654850  2.20E-01
     6 Broy./Diag. 0.40E+00    3.3     0.00722022      -264.0231741187 -6.93E-02
     7 Broy./Diag. 0.40E+00    3.3     0.01678711      -264.0098860139  1.33E-02
     8 Broy./Diag. 0.40E+00    3.3     0.00623573      -264.0179642423 -8.08E-03
     9 Broy./Diag. 0.40E+00    3.3     0.00803346      -264.0415646748 -2.36E-02
    10 Broy./Diag. 0.40E+00    3.3     0.00794497      -264.0385083858  3.06E-03
    11 Broy./Diag. 0.40E+00    3.3     0.00266178      -264.0425578985 -4.05E-03
    12 Broy./Diag. 0.40E+00    3.3     0.00664178      -264.0439064282 -1.35E-03
    13 Broy./Diag. 0.40E+00    3.2     0.00550569      -264.0423689919  1.54E-03
    14 Broy./Diag. 0.40E+00    3.3     0.00318683      -264.0427106128 -3.42E-04
    15 Broy./Diag. 0.40E+00    3.2     0.00045843      -264.0428882863 -1.78E-04
    16 Broy./Diag. 0.40E+00    3.2     0.00148724      -264.0432269493 -3.39E-04
    17 Broy./Diag. 0.40E+00    3.2     0.00185946      -264.0440352848 -8.08E-04
    18 Broy./Diag. 0.40E+00    3.2     0.00123841      -264.0435523310  4.83E-04
    19 Broy./Diag. 0.40E+00    3.2     0.00048669      -264.0430707299  4.82E-04
    20 Broy./Diag. 0.40E+00    3.3     0.00024008      -264.0429485688  1.22E-04
    21 Broy./Diag. 0.40E+00    3.2     0.00038039      -264.0428589801  8.96E-05
    22 Broy./Diag. 0.40E+00    3.2     0.00023358      -264.0428530950  5.89E-06
    23 Broy./Diag. 0.40E+00    3.3     0.00011487      -264.0427988309  5.43E-05
    24 Broy./Diag. 0.40E+00    3.2     0.00013331      -264.0427912788  7.55E-06
    25 Broy./Diag. 0.40E+00    3.2     0.00013818      -264.0428250689 -3.38E-05
    26 Broy./Diag. 0.40E+00    3.3     0.00007764      -264.0428229200  2.15E-06
    27 Broy./Diag. 0.40E+00    3.3     0.00007665      -264.0428125586  1.04E-05
    28 Broy./Diag. 0.40E+00    3.3     0.00000700      -264.0428157686 -3.21E-06
    29 Broy./Diag. 0.40E+00    3.3     0.00005341      -264.0428137239  2.04E-06
    30 Broy./Diag. 0.40E+00    3.3     0.00001826      -264.0428141117 -3.88E-07
    31 Broy./Diag. 0.40E+00    3.3     0.00000339      -264.0428168469 -2.74E-06
    32 Broy./Diag. 0.40E+00    3.3     0.00002557      -264.0428151827  1.66E-06
    33 Broy./Diag. 0.40E+00    3.3     0.00000637      -264.0428147125  4.70E-07
    34 Broy./Diag. 0.40E+00    3.3     0.00000545      -264.0428160164 -1.30E-06
    35 Broy./Diag. 0.40E+00    3.3     0.00000751      -264.0428151591  8.57E-07
    36 Broy./Diag. 0.40E+00    3.3     0.00001582      -264.0428157464 -5.87E-07
    37 Broy./Diag. 0.40E+00    3.3     0.00000369      -264.0428160055 -2.59E-07
    38 Broy./Diag. 0.40E+00    3.3     0.00000042      -264.0428153542  6.51E-07
    39 Broy./Diag. 0.40E+00    3.2     0.00000463      -264.0428155628 -2.09E-07
    40 Broy./Diag. 0.40E+00    3.2     0.00000133      -264.0428154274  1.35E-07
    41 Broy./Diag. 0.40E+00    3.3     0.00000130      -264.0428153798  4.77E-08
    42 Broy./Diag. 0.40E+00    3.2     0.00000101      -264.0428156984 -3.19E-07
    43 Broy./Diag. 0.40E+00    3.2     0.00000043      -264.0428155439  1.54E-07
    44 Broy./Diag. 0.40E+00    3.2     0.00000032      -264.0428154394  1.05E-07
    45 Broy./Diag. 0.40E+00    3.2     0.00000007      -264.0428154411 -1.76E-09
    46 Broy./Diag. 0.40E+00    3.2     0.00000016      -264.0428153778  6.34E-08
    47 Broy./Diag. 0.40E+00    3.2     0.00000017      -264.0428153669  1.09E-08
    48 Broy./Diag. 0.40E+00    3.3     0.00000017      -264.0428153804 -1.35E-08
    49 Broy./Diag. 0.40E+00    3.2     0.00000009      -264.0428153723  8.08E-09
    50 Broy./Diag. 0.40E+00    3.2     0.00000004      -264.0428153838 -1.15E-08
    51 Broy./Diag. 0.40E+00    3.2     9.9670E-09      -264.0428153861 -2.25E-09
    52 Broy./Diag. 0.40E+00    3.2     0.00000001      -264.0428153844  1.71E-09
    53 Broy./Diag. 0.40E+00    3.2     6.5697E-09      -264.0428153861 -1.78E-09
    54 Broy./Diag. 0.40E+00    3.2     4.9888E-09      -264.0428153852  8.87E-10
    55 Broy./Diag. 0.40E+00    3.2     4.6567E-09      -264.0428153856 -3.85E-10
    56 Broy./Diag. 0.40E+00    3.2     2.1591E-09      -264.0428153869 -1.31E-09
    57 Broy./Diag. 0.40E+00    3.2     9.2759E-10      -264.0428153860  9.17E-10

  *** SCF run converged in    57 steps ***


  Electronic density on regular grids:        -30.8098613527       11.1901386473
  Core density on regular grids:               42.0000000000       -0.0000000000
  Hard and soft densities (Lebedev):         -216.2640483798     -205.0739094433
  Total Rho_soft + Rho1_hard - Rho1_soft      -42.0000002893
  Total charge density (r-space):              -0.0000002893
  Total Rho_soft + Rho0_soft (g-space):        -0.0000003476

  Overlap energy of the core charge distribution:               0.00000750136530
  Self energy of the core charge distribution:               -217.69203579805162
  Core Hamiltonian energy:                                    -42.27599818370999
  Hartree energy:                                              82.82492738572000
  Exchange-correlation energy:                                -10.77260944498648
  Hartree-Fock Exchange energy:                                -8.82223010822804

  GAPW| Exc from hard and soft atomic rho1:                   -17.04831325922947
  GAPW| local Eh = 1 center integrals:                        -50.25656347890487

  Total energy:                                              -264.04281538602515

 !-----------------------------------------------------------------------------!
                     Mulliken Population Analysis

 #  Atom  Element  Kind  Atomic population                           Net charge
       1     H        1          1.370427                             -0.370427
       2     H        1          1.370427                             -0.370427
       3     H        1          1.370427                             -0.370427
       4     H        1          1.370427                             -0.370427
       5     C        2          5.377157                              0.622843
       6     C        2          5.377157                              0.622843
       7     C        2          5.377157                              0.622843
       8     C        2          5.377157                              0.622843
       9     N        3          7.504832                             -0.504832
      10     N        3          7.504832                             -0.504832
 # Total charge                             42.000000                  0.000000

 !-----------------------------------------------------------------------------!

 !-----------------------------------------------------------------------------!
                           Hirshfeld Charges

  #Atom  Element  Kind  Ref Charge     Population                    Net charge
      1       H      1       1.000          0.508                         0.492
      2       H      1       1.000          0.508                         0.492
      3       H      1       1.000          0.508                         0.492
      4       H      1       1.000          0.508                         0.492
      5       C      2       6.000          6.346                        -0.346
      6       C      2       6.000          6.346                        -0.346
      7       C      2       6.000          6.346                        -0.346
      8       C      2       6.000          6.346                        -0.346
      9       N      3       7.000          7.278                        -0.278
     10       N      3       7.000          7.278                        -0.278

  Total Charge                                                            0.027
 !-----------------------------------------------------------------------------!
  
 -------------------------------------------------------------------------------
 -                                                                             -
 -                          BANDSTRUCTURE CALCULATION                          -
 -                                                                             -
 -------------------------------------------------------------------------------
  
 Number of occupied molecular orbitals (MOs) = Number of occupied bands       21
 Number of unoccupied (= virtual) MOs = Number of unoccupied bands           153
 Number of Gaussian basis functions for MOs                                  174
 K-point mesh for the density of states (DOS) and the self-energy      1   1   1
  
 -------------------------------------------------------------------------------
 -                                                                             -
 -                              GW CALCULATION                                 -
 -                                                                             -
 -------------------------------------------------------------------------------
  
 Input: Number of time/freq. points                                           30
 Input: Filter threshold for sparse tensor operations                    1.0E-08
 Apply Hedin shift                                                             F
  
 Number of auxiliary Gaussian basis functions for , , W                    820
 Cutoff radius for the truncated Coulomb operator in ^x:               2645.9 
 Cutoff radius for the truncated Coulomb operator in RI metric:            3.0 
 Regularization parameter of RI                                          0.0E+00
 Lattice sum size for V(k):                                                    3
  
 K-point mesh 1 for , , W                                            1   1   1
 K-point mesh 2 for , , W (for k-point extrapolation of W)           1   1   1
 Approximate the k-point extrapolation                                         F
 Group size for tensor operations                                             16
 
 Computed 3-center integrals (|P), execution time                        0.9 s
 Percentage of non-zero (|P)                                         100.000 %
 Max. distance between , in non-zero (|P)                              4.8 A
 Required memory if storing all 3-center integrals (|P)                   0 GB
 
 Number of i and j atoms in M_P(), N_Q():                               17
 Number of inner loop atoms for  in M_P = sum_ (|P) G_                10
 
 SCF direct band gap (eV)                                                   5.71
 Max. SCF eigval diff. (eV)                                               490.01
 E-Range for minimax grid                                                  85.76
 Number of Pad parameters for analytic continuation:                         16
 
 Computed (i,k=0) for time point            1 / 30,    Execution time    0.8 s
 Computed (i,k=0) for time point            2 / 30,    Execution time    0.7 s
 Computed (i,k=0) for time point            3 / 30,    Execution time    0.7 s
 Computed (i,k=0) for time point            4 / 30,    Execution time    0.7 s
 Computed (i,k=0) for time point            5 / 30,    Execution time    0.7 s
 Computed (i,k=0) for time point            6 / 30,    Execution time    0.7 s
 Computed (i,k=0) for time point            7 / 30,    Execution time    0.7 s
 Computed (i,k=0) for time point            8 / 30,    Execution time    0.7 s
 Computed (i,k=0) for time point            9 / 30,    Execution time    0.7 s
 Computed (i,k=0) for time point           10 / 30,    Execution time    0.7 s
 Computed (i,k=0) for time point           11 / 30,    Execution time    0.7 s
 Computed (i,k=0) for time point           12 / 30,    Execution time    0.7 s
 Computed (i,k=0) for time point           13 / 30,    Execution time    0.7 s
 Computed (i,k=0) for time point           14 / 30,    Execution time    0.7 s
 Computed (i,k=0) for time point           15 / 30,    Execution time    0.7 s
 Computed (i,k=0) for time point           16 / 30,    Execution time    0.7 s
 Computed (i,k=0) for time point           17 / 30,    Execution time    0.7 s
 Computed (i,k=0) for time point           18 / 30,    Execution time    0.7 s
 Computed (i,k=0) for time point           19 / 30,    Execution time    0.7 s
 Computed (i,k=0) for time point           20 / 30,    Execution time    0.7 s
 Computed (i,k=0) for time point           21 / 30,    Execution time    0.7 s
 Computed (i,k=0) for time point           22 / 30,    Execution time    0.7 s
 Computed (i,k=0) for time point           23 / 30,    Execution time    0.7 s
 Computed (i,k=0) for time point           24 / 30,    Execution time    0.6 s
 Computed (i,k=0) for time point           25 / 30,    Execution time    0.4 s
 Computed (i,k=0) for time point           26 / 30,    Execution time    0.4 s
 Computed (i,k=0) for time point           27 / 30,    Execution time    0.4 s
 Computed (i,k=0) for time point           28 / 30,    Execution time    0.4 s
 Computed (i,k=0) for time point           29 / 30,    Execution time    0.4 s
 Computed (i,k=0) for time point           30 / 30,    Execution time    0.4 s
 
 Computed W(i,k) for k-point batch           1 /  1,    Execution time    5.7 s
 
 Computed ^x(k=0),                                      Execution time    0.7 s
 
 Computed ^c(i,k=0) for time point          1 / 30,    Execution time    0.9 s
 Computed ^c(i,k=0) for time point          2 / 30,    Execution time    0.9 s
 Computed ^c(i,k=0) for time point          3 / 30,    Execution time    0.9 s
 Computed ^c(i,k=0) for time point          4 / 30,    Execution time    0.9 s
 Computed ^c(i,k=0) for time point          5 / 30,    Execution time    0.9 s
 Computed ^c(i,k=0) for time point          6 / 30,    Execution time    0.9 s
 Computed ^c(i,k=0) for time point          7 / 30,    Execution time    0.9 s
 Computed ^c(i,k=0) for time point          8 / 30,    Execution time    0.9 s
 Computed ^c(i,k=0) for time point          9 / 30,    Execution time    0.9 s
 Computed ^c(i,k=0) for time point         10 / 30,    Execution time    0.9 s
 Computed ^c(i,k=0) for time point         11 / 30,    Execution time    0.9 s
 Computed ^c(i,k=0) for time point         12 / 30,    Execution time    0.9 s
 Computed ^c(i,k=0) for time point         13 / 30,    Execution time    0.9 s
 Computed ^c(i,k=0) for time point         14 / 30,    Execution time    0.9 s
 Computed ^c(i,k=0) for time point         15 / 30,    Execution time    0.9 s
 Computed ^c(i,k=0) for time point         16 / 30,    Execution time    0.9 s
 Computed ^c(i,k=0) for time point         17 / 30,    Execution time    0.9 s
 Computed ^c(i,k=0) for time point         18 / 30,    Execution time    0.9 s
 Computed ^c(i,k=0) for time point         19 / 30,    Execution time    0.9 s
 Computed ^c(i,k=0) for time point         20 / 30,    Execution time    0.9 s
 Computed ^c(i,k=0) for time point         21 / 30,    Execution time    0.9 s
 Computed ^c(i,k=0) for time point         22 / 30,    Execution time    0.9 s
 Computed ^c(i,k=0) for time point         23 / 30,    Execution time    0.8 s
 Computed ^c(i,k=0) for time point         24 / 30,    Execution time    0.0 s
 Computed ^c(i,k=0) for time point         25 / 30,    Execution time    0.0 s
 Computed ^c(i,k=0) for time point         26 / 30,    Execution time    0.0 s
 Computed ^c(i,k=0) for time point         27 / 30,    Execution time    0.0 s
 Computed ^c(i,k=0) for time point         28 / 30,    Execution time    0.0 s
 Computed ^c(i,k=0) for time point         29 / 30,    Execution time    0.0 s
 Computed ^c(i,k=0) for time point         30 / 30,    Execution time    0.0 s
 
 Sparsity of ^c(i,k=0): Percentage of skipped atom pairs:               25.0 %
 Retaining nl_3c for RTBSE

 
 SCF valence band maximum (eV):                                           -7.433
 SCF conduction band minimum (eV):                                        -1.719
 SCF indirect band gap (eV):                                               5.714
 SCF direct band gap (eV):                                                 5.714
 
 G0W0 valence band maximum (eV):                                          -9.104
 G0W0 conduction band minimum (eV):                                        0.507
 G0W0 indirect band gap (eV):                                              9.611
 G0W0 direct band gap (eV):                                                9.611
 
 Hartree-Fock with SCF orbitals valence band maximum (eV):                -9.487
 Hartree-Fock with SCF orbitals conduction band minimum (eV)               1.285
 Hartree-Fock with SCF orbitals indirect band gap (eV):                   10.773
 Hartree-Fock with SCF orbitals direct band gap (eV):                     10.773

 ENERGY| Total FORCE_EVAL ( QS ) energy [hartree]           -264.042815386025154
 RTBSE| Approximate size of the 3c integrals                       0.19E+003 MiB
 
 /-----------------------------------------------------------------------------\
 |                                                                             |
 |                    Real Time Bethe-Salpeter Propagation                     |
 |                                                                             |
 \-----------------------------------------------------------------------------/
 
 Exponential method                                                          BCH
 Reference Hamiltonian                                                      G0W0
 Apply delta pulse                                                             T
 Use adaptive timestep                                                         F
 Use eigenstate removal                                                        F


 *** WARNING in emd/rt_bse_io.F:488 :: Restart required but no info file ***
 *** found - starting from sim_step given in input                       ***


 *** WARNING in emd/rt_bse_io.F:514 :: Restart without some restart ***
 *** matrices - starting from SCF density.                          ***


 *** WARNING in emd/rt_bse_io.F:567 :: Restart without previous moments - ***
 *** unknown moments trace set to zero.                                   ***

 RTBSE| Applying delta pulse
 RTBSE| Delta pulse elements (a.u.) :   -0.1000E-003  -0.0000E+000  -0.0000E+000
 RTBSE| Metric difference after delta kick                       0.65142351E-004
 RTBSE| Simulation step         Convergence     Electron number  ETRS Iterations
 RTBSE|               0     0.38582433E-008     0.42000000E+002               51

 *******************************************************************************
 *   ___                                                                       *
 *  /   \                                                                      *
 * [ABORT]                                                                     *
 *  \___/                          ETRS did not converge                       *
 *    |                                                                        *
 *  O/|                                                                        *
 * /| |                                                                        *
 * / \                                                        emd/rt_bse.F:283 *
 *******************************************************************************


 ===== Routine Calling Stack ===== 

            2 run_propagation_bse
            1 CP2K
