 DBCSR| CPU Multiplication driver                                           XSMM (U)
 DBCSR| Multrec recursion limit                                              512 (U)
 DBCSR| Multiplication stack size                                           1000 (D)
 DBCSR| Maximum elements for images                                    UNLIMITED (U)
 DBCSR| Multiplicative factor virtual images                                   1 (U)
 DBCSR| Use multiplication densification                                       T (D)
 DBCSR| Multiplication size stacks                                             3 (U)
 DBCSR| Use memory pool for CPU allocation                                     F (U)
 DBCSR| Number of 3D layers                                               SINGLE (U)
 DBCSR| Use MPI memory allocation                                              F (U)
 DBCSR| Use RMA algorithm                                                      F (U)
 DBCSR| Use Communication thread                                               T (U)
 DBCSR| Communication thread load                                             79 (D)
 DBCSR| MPI: My process id                                                     0
 DBCSR| MPI: Number of processes                                              16
 DBCSR| OMP: Current number of threads                                         3
 DBCSR| OMP: Max number of threads                                             3
 DBCSR| Split modifier for TAS multiplication algorithm                  1.0E+00 (U)


  **** **** ******  **  PROGRAM STARTED AT               2025-01-27 13:54:28.022
 ***** ** ***  *** **   PROGRAM STARTED ON                          i05r11c06s11
 **    ****   ******    PROGRAM STARTED BY                               di75qec
 ***** **    ** ** **   PROGRAM PROCESS ID                                 38657
  **** **  *******  **  PROGRAM STARTED IN /hppfs/scratch/09/di75qec/Adenine_scf
                                           .4256176

 CP2K| version string:                 CP2K version 2025.1 (Development Version)
 CP2K| source code revision number:                                  git:521e606
 CP2K| cp2kflags: omp libint fftw3 libxc parallel scalapack xsmm max_contr=4    
 CP2K| is freely available from                            https://www.cp2k.org/
 CP2K| Program compiled at                       Fri 24 Jan 2025 03:07:07 PM CET
 CP2K| Program compiled on                                               login03
 CP2K| Program compiled for                                        Supermuc-foss
 CP2K| Data directory path               /dss/dsshome1/09/di75qec/CP2K-foss/data
 CP2K| Input file name                                                   scf.inp

 GLOBAL| Force Environment number                                              1
 GLOBAL| Basis set file name                                         aug-cc-pvdz
 GLOBAL| Potential file name                                      ALL_POTENTIALS
 GLOBAL| MM Potential file name                                     MM_POTENTIAL
 GLOBAL| Coordinate file name                                          coord.xyz
 GLOBAL| Method name                                                        CP2K
 GLOBAL| Project name                                                    Adenine
 GLOBAL| Run type                                                 RT_PROPAGATION
 GLOBAL| FFT library                                                       FFTW3
 GLOBAL| Diagonalization library                                       ScaLAPACK
 GLOBAL| DGEMM library                                                      BLAS
 GLOBAL| Orthonormality check for eigenvectors                          DISABLED
 GLOBAL| Matrix multiplication library                                 ScaLAPACK
 GLOBAL| All-to-all communication in single precision                          F
 GLOBAL| FFTs using library dependent lengths                                  F
 GLOBAL| Grid backend                                                       AUTO
 GLOBAL| Global print level                                               MEDIUM
 GLOBAL| MPI I/O enabled                                                       T
 GLOBAL| Total number of message passing processes                            16
 GLOBAL| Number of threads for this process                                    3
 GLOBAL| This output is from process                                           0
 GLOBAL| OpenMP stack size per thread (OMP_STACKSIZE)                    default
 GLOBAL| CPU model name             Intel(R) Xeon(R) Platinum 8174 CPU @ 3.10GHz
 GLOBAL| CPUID                                                              1003
 GLOBAL| Compiled for CPUID                                                    0

 *** HINT in environment.F:928 :: The compiler target flags (generic) used ***
 *** to build this binary cannot exploit all extensions of this CPU model  ***
 *** (x86_avx512). Consider compiler target flags as part of FCFLAGS and   ***
 *** CFLAGS (ARCH file).                                                   ***


 MEMORY| system memory details [Kb]
 MEMORY|                        rank 0           min           max       average
 MEMORY| MemTotal             98436660      98436660      98436660      98436660
 MEMORY| MemFree              86624384      86624384      86624636      86624604
 MEMORY| Buffers                     0             0             0             0
 MEMORY| Cached                2146472       2146472       2146472       2146472
 MEMORY| Slab                   655740        655740        655740        655740
 MEMORY| SReclaimable           104288        104288        104288        104288
 MEMORY| MemLikelyFree        88875144      88875144      88875396      88875364


 *** Fundamental physical constants (SI units) ***

 *** Literature: B. J. Mohr and B. N. Taylor,
 ***             CODATA recommended values of the fundamental physical
 ***             constants: 2006, Web Version 5.1
 ***             http://physics.nist.gov/constants

 Speed of light in vacuum [m/s]                             2.99792458000000E+08
 Magnetic constant or permeability of vacuum [N/A**2]       1.25663706143592E-06
 Electric constant or permittivity of vacuum [F/m]          8.85418781762039E-12
 Planck constant (h) [J*s]                                  6.62606896000000E-34
 Planck constant (h-bar) [J*s]                              1.05457162825177E-34
 Elementary charge [C]                                      1.60217648700000E-19
 Electron mass [kg]                                         9.10938215000000E-31
 Electron g factor [ ]                                     -2.00231930436220E+00
 Proton mass [kg]                                           1.67262163700000E-27
 Fine-structure constant                                    7.29735253760000E-03
 Rydberg constant [1/m]                                     1.09737315685270E+07
 Avogadro constant [1/mol]                                  6.02214179000000E+23
 Boltzmann constant [J/K]                                   1.38065040000000E-23
 Atomic mass unit [kg]                                      1.66053878200000E-27
 Bohr radius [m]                                            5.29177208590000E-11

 *** Conversion factors ***

 [u] -> [a.u.]                                              1.82288848426455E+03
 [Angstrom] -> [Bohr] = [a.u.]                              1.88972613288564E+00
 [a.u.] = [Bohr] -> [Angstrom]                              5.29177208590000E-01
 [a.u.] -> [s]                                              2.41888432650478E-17
 [a.u.] -> [fs]                                             2.41888432650478E-02
 [a.u.] -> [J]                                              4.35974393937059E-18
 [a.u.] -> [N]                                              8.23872205491840E-08
 [a.u.] -> [K]                                              3.15774647902944E+05
 [a.u.] -> [kJ/mol]                                         2.62549961709828E+03
 [a.u.] -> [kcal/mol]                                       6.27509468713739E+02
 [a.u.] -> [Pa]                                             2.94210107994716E+13
 [a.u.] -> [bar]                                            2.94210107994716E+08
 [a.u.] -> [atm]                                            2.90362800883016E+08
 [a.u.] -> [eV]                                             2.72113838565563E+01
 [a.u.] -> [Hz]                                             6.57968392072181E+15
 [a.u.] -> [1/cm] (wave numbers)                            2.19474631370540E+05
 [a.u./Bohr**2] -> [1/cm]                                   5.14048714338585E+03
 

 CELL_TOP| Volume [angstrom^3]:                                      8000.000000
 CELL_TOP| Vector a [angstrom    20.000     0.000     0.000   |a| =    20.000000
 CELL_TOP| Vector b [angstrom     0.000    20.000     0.000   |b| =    20.000000
 CELL_TOP| Vector c [angstrom     0.000     0.000    20.000   |c| =    20.000000
 CELL_TOP| Angle (b,c), alpha [degree]:                                90.000000
 CELL_TOP| Angle (a,c), beta  [degree]:                                90.000000
 CELL_TOP| Angle (a,b), gamma [degree]:                                90.000000
 CELL_TOP| Numerically orthorhombic:                                         YES
 CELL_TOP| Periodicity                                                      NONE

 GENERATE|  Preliminary Number of Bonds generated:                             0
 GENERATE|  Achieved consistency in connectivity generation.

 CELL| Volume [angstrom^3]:                                          8000.000000
 CELL| Vector a [angstrom]:      20.000     0.000     0.000   |a| =    20.000000
 CELL| Vector b [angstrom]:       0.000    20.000     0.000   |b| =    20.000000
 CELL| Vector c [angstrom]:       0.000     0.000    20.000   |c| =    20.000000
 CELL| Angle (b,c), alpha [degree]:                                    90.000000
 CELL| Angle (a,c), beta  [degree]:                                    90.000000
 CELL| Angle (a,b), gamma [degree]:                                    90.000000
 CELL| Numerically orthorhombic:                                             YES
 CELL| Periodicity                                                          NONE

 CELL_REF| Volume [angstrom^3]:                                      8000.000000
 CELL_REF| Vector a [angstrom    20.000     0.000     0.000   |a| =    20.000000
 CELL_REF| Vector b [angstrom     0.000    20.000     0.000   |b| =    20.000000
 CELL_REF| Vector c [angstrom     0.000     0.000    20.000   |c| =    20.000000
 CELL_REF| Angle (b,c), alpha [degree]:                                90.000000
 CELL_REF| Angle (a,c), beta  [degree]:                                90.000000
 CELL_REF| Angle (a,b), gamma [degree]:                                90.000000
 CELL_REF| Numerically orthorhombic:                                         YES
 CELL_REF| Periodicity                                                      NONE

 *******************************************************************************
 *******************************************************************************
 **                                                                           **
 **     #####                         ##              ##                      **
 **    ##   ##            ##          ##              ##                      **
 **   ##     ##                       ##            ######                    **
 **   ##     ##  ##   ##  ##   #####  ##  ##   ####   ##    #####    #####    **
 **   ##     ##  ##   ##  ##  ##      ## ##   ##      ##   ##   ##  ##   ##   **
 **   ##  ## ##  ##   ##  ##  ##      ####     ###    ##   ######   ######    **
 **    ##  ###   ##   ##  ##  ##      ## ##      ##   ##   ##       ##        **
 **     #######   #####   ##   #####  ##  ##  ####    ##    #####   ##        **
 **           ##                                                    ##        **
 **                                                                           **
 **                                                ... make the atoms dance   **
 **                                                                           **
 **            Copyright (C) by CP2K developers group (2000-2025)             **
 **                      J. Chem. Phys. 152, 194103 (2020)                    **
 **                                                                           **
 *******************************************************************************

 DFT| Spin restricted Kohn-Sham (RKS) calculation                            RKS
 DFT| Multiplicity                                                             1
 DFT| Number of spin states                                                    1
 DFT| Charge                                                                   0
 DFT| Self-interaction correction (SIC)                                       NO
 DFT| Cutoffs: density                                              1.000000E-10
 DFT|          gradient                                             1.000000E-10
 DFT|          tau                                                  1.000000E-10
 DFT|          cutoff_smoothing_range                               0.000000E+00
 DFT| XC density smoothing                                                  NONE
 DFT| XC derivatives                                                          PW

 FUNCTIONAL| PBE:
 FUNCTIONAL| J.P.Perdew, K.Burke, M.Ernzerhof, Phys. Rev. Letter, vol. 77, n 18,
 FUNCTIONAL|  pp. 3865-3868, (1996)sx=0.750sc=1.000{spin unpolarized}           


 QS| Method:                                                                GAPW
 QS| Density plane wave grid type                        NON-SPHERICAL FULLSPACE
 QS| Number of grid levels:                                                    4
 QS| Density cutoff [a.u.]:                                                300.0
 QS| Multi grid cutoff [a.u.]: 1) grid level                               300.0
 QS|                           2) grid level                               100.0
 QS|                           3) grid level                                33.3
 QS|                           4) grid level                                11.1
 QS| Grid level progression factor:                                          3.0
 QS| Relative density cutoff [a.u.]:                                        30.0
 QS| Interaction thresholds: eps_pgf_orb:                                1.0E-05
 QS|                         eps_filter_matrix:                          0.0E+00
 QS|                         eps_core_charge:                            1.0E-12
 QS|                         eps_rho_gspace:                             1.0E-10
 QS|                         eps_rho_rspace:                             1.0E-10
 QS|                         eps_gvg_rspace:                             1.0E-05
 QS|                         eps_ppl:                                    1.0E-02
 QS|                         eps_ppnl:                                   1.0E-07
 QS| GAPW|      One center basis from orbital basis primitives
 QS| GAPW|                   eps_fit:                                    1.0E-04
 QS| GAPW|                   eps_iso:                                    1.0E-12
 QS| GAPW|                   eps_svd:                                    1.0E-08
 QS| GAPW|                   eps_cpc:                                    1.0E-10
 QS| GAPW|   atom-r-grid: quadrature:                                     GC_LOG
 QS| GAPW|      atom-s-grid:  max l :                                          4
 QS| GAPW|      max_l_rho0 :                                                   2


 ATOMIC KIND INFORMATION

  1. Atomic kind: H                                     Number of atoms:       5

     Orbital Basis Set                                               aug-cc-pvdz

       Number of orbital shell sets:                                           4
       Number of orbital shells:                                               5
       Number of primitive Cartesian functions:                                7
       Number of Cartesian basis functions:                                    9
       Number of spherical basis functions:                                    9
       Norm type:                                                              2

       Normalised Cartesian orbitals:

                        Set   Shell   Orbital            Exponent    Coefficient

                          1       1    1s               13.010000       0.096107
                                                         1.962000       0.163020
                                                         0.444600       0.185545
                                                         0.122000       0.073744

                          1       2    2s               13.010000       0.000000
                                                         1.962000       0.000000
                                                         0.444600       0.000000
                                                         0.122000       0.147123

                          2       1    1s                0.029740       0.051041

                          3       1    1px               0.727000       0.956881
                          3       1    1py               0.727000       0.956881
                          3       1    1pz               0.727000       0.956881

                          4       1    1px               0.141000       0.123158
                          4       1    1py               0.141000       0.123158
                          4       1    1pz               0.141000       0.123158

     RI Auxiliary Basis Set                                    aug-cc-pvtz-rifit

       Number of orbital shell sets:                                          14
       Number of orbital shells:                                              14
       Number of primitive Cartesian functions:                               14
       Number of Cartesian basis functions:                                   55
       Number of spherical basis functions:                                   46
       Norm type:                                                              2

       Normalised Cartesian orbitals:

                        Set   Shell   Orbital            Exponent    Coefficient

                          1       1    1s                8.512828       3.551939

                          2       1    1s                1.873089       1.141114

                          3       1    1s                0.526184       0.440315

                          4       1    1s                0.289740       0.281460

                          5       1    1s                0.127194       0.151796

                          6       1    1px               2.372549       4.197195
                          6       1    1py               2.372549       4.197195
                          6       1    1pz               2.372549       4.197195

                          7       1    1px               1.180408       1.753802
                          7       1    1py               1.180408       1.753802
                          7       1    1pz               1.180408       1.753802

                          8       1    1px               0.603822       0.758711
                          8       1    1py               0.603822       0.758711
                          8       1    1pz               0.603822       0.758711

                          9       1    1px               0.235513       0.233861
                          9       1    1py               0.235513       0.233861
                          9       1    1pz               0.235513       0.233861

                         10       1    1dx2              1.809637       4.647235
                         10       1    1dxy              1.809637       8.049248
                         10       1    1dxz              1.809637       8.049248
                         10       1    1dy2              1.809637       4.647235
                         10       1    1dyz              1.809637       8.049248
                         10       1    1dz2              1.809637       4.647235

                         11       1    1dx2              1.143973       2.082748
                         11       1    1dxy              1.143973       3.607426
                         11       1    1dxz              1.143973       3.607426
                         11       1    1dy2              1.143973       2.082748
                         11       1    1dyz              1.143973       3.607426
                         11       1    1dz2              1.143973       2.082748

                         12       1    1dx2              0.436654       0.386056
                         12       1    1dxy              0.436654       0.668668
                         12       1    1dxz              0.436654       0.668668
                         12       1    1dy2              0.436654       0.386056
                         12       1    1dyz              0.436654       0.668668
                         12       1    1dz2              0.436654       0.386056

                         13       1    1fx3              1.806306       5.568458
                         13       1    1fx2y             1.806306      12.451451
                         13       1    1fx2z             1.806306      12.451451
                         13       1    1fxy2             1.806306      12.451451
                         13       1    1fxyz             1.806306      21.566546
                         13       1    1fxz2             1.806306      12.451451
                         13       1    1fy3              1.806306       5.568458
                         13       1    1fy2z             1.806306      12.451451
                         13       1    1fyz2             1.806306      12.451451
                         13       1    1fz3              1.806306       5.568458

                         14       1    1fx3              0.252978       0.066817
                         14       1    1fx2y             0.252978       0.149408
                         14       1    1fx2z             0.252978       0.149408
                         14       1    1fxy2             0.252978       0.149408
                         14       1    1fxyz             0.252978       0.258783
                         14       1    1fxz2             0.252978       0.149408
                         14       1    1fy3              0.252978       0.066817
                         14       1    1fy2z             0.252978       0.149408
                         14       1    1fyz2             0.252978       0.149408
                         14       1    1fz3              0.252978       0.066817

       Atomic covalent radius [Angstrom]:                                  0.320

       Atomic van der Waals radius [Angstrom]:                             1.090

     The atoms of this atomic kind are PAW atoms (GAPW):
       Hard Gaussian function radius:                                      1.200
       Rho0 radius:                                                        1.200
       Maximum GTO radius used for PAW projector construction:            24.566

     GAPW Soft Basis Set                                        aug-cc-pvdz_soft

       Number of orbital shell sets:                                           4
       Number of orbital shells:                                               5
       Number of primitive Cartesian functions:                                6
       Number of Cartesian basis functions:                                    9
       Number of spherical basis functions:                                    9
       Norm type:                                                              2

       Normalised Cartesian orbitals:

                        Set   Shell   Orbital            Exponent    Coefficient

                          1       1    1s                1.962000       0.163020
                                                         0.444600       0.185545
                                                         0.122000       0.073744

                          1       2    2s                1.962000       0.000000
                                                         0.444600       0.000000
                                                         0.122000       0.147123

                          2       1    1s                0.029740       0.051041

                          3       1    1px               0.727000       0.956881
                          3       1    1py               0.727000       0.956881
                          3       1    1pz               0.727000       0.956881

                          4       1    1px               0.141000       0.123158
                          4       1    1py               0.141000       0.123158
                          4       1    1pz               0.141000       0.123158

     AE Potential information for                                            ALL

       Description:                                       All-electron potential
                                          Krack, Parrinello, PCCP 2, 2105 (2000)

       Gaussian exponent of the core charge distribution:              12.500000
       Electronic configuration (s p d ...):                           1   0   0

  2. Atomic kind: C                                     Number of atoms:       5

     Orbital Basis Set                                               aug-cc-pvdz

       Number of orbital shell sets:                                           6
       Number of orbital shells:                                               9
       Number of primitive Cartesian functions:                               17
       Number of Cartesian basis functions:                                   25
       Number of spherical basis functions:                                   23
       Norm type:                                                              2

       Normalised Cartesian orbitals:

                        Set   Shell   Orbital            Exponent    Coefficient

                          1       1    1s             6665.000000       0.363803
                                                      1000.000000       0.675392
                                                       228.000000       1.132301
                                                        64.710000       1.654004
                                                        21.060000       1.924978
                                                         7.495000       1.448149
                                                         2.797000       0.439427
                                                         0.521500       0.006650
                                                         0.159600      -0.000574

                          1       2    2s             6665.000000      -0.076756
                                                      1000.000000      -0.146257
                                                       228.000000      -0.239407
                                                        64.710000      -0.379069
                                                        21.060000      -0.448104
                                                         7.495000      -0.484201
                                                         2.797000      -0.196168
                                                         0.521500       0.238162
                                                         0.159600       0.104468

                          1       3    3s             6665.000000       0.000000
                                                      1000.000000       0.000000
                                                       228.000000       0.000000
                                                        64.710000       0.000000
                                                        21.060000       0.000000
                                                         7.495000       0.000000
                                                         2.797000       0.000000
                                                         0.521500       0.000000
                                                         0.159600       0.179964

                          2       1    1s                0.046900       0.071827

                          3       1    1px               9.439000       0.898722
                                                         2.002000       0.711071
                                                         0.545600       0.339917
                                                         0.151700       0.063270
                          3       1    1py               9.439000       0.898722
                                                         2.002000       0.711071
                                                         0.545600       0.339917
                                                         0.151700       0.063270
                          3       1    1pz               9.439000       0.898722
                                                         2.002000       0.711071
                                                         0.545600       0.339917
                                                         0.151700       0.063270

                          3       2    2px               9.439000       0.000000
                                                         2.002000       0.000000
                                                         0.545600       0.000000
                                                         0.151700       0.134950
                          3       2    2py               9.439000       0.000000
                                                         2.002000       0.000000
                                                         0.545600       0.000000
                                                         0.151700       0.134950
                          3       2    2pz               9.439000       0.000000
                                                         2.002000       0.000000
                                                         0.545600       0.000000
                                                         0.151700       0.134950

                          4       1    1px               0.040410       0.025826
                          4       1    1py               0.040410       0.025826
                          4       1    1pz               0.040410       0.025826

                          5       1    1dx2              0.550000       0.578155
                          5       1    1dxy              0.550000       1.001394
                          5       1    1dxz              0.550000       1.001394
                          5       1    1dy2              0.550000       0.578155
                          5       1    1dyz              0.550000       1.001394
                          5       1    1dz2              0.550000       0.578155

                          6       1    1dx2              0.151000       0.060203
                          6       1    1dxy              0.151000       0.104275
                          6       1    1dxz              0.151000       0.104275
                          6       1    1dy2              0.151000       0.060203
                          6       1    1dyz              0.151000       0.104275
                          6       1    1dz2              0.151000       0.060203

     RI Auxiliary Basis Set                                    aug-cc-pvtz-rifit

       Number of orbital shell sets:                                          28
       Number of orbital shells:                                              28
       Number of primitive Cartesian functions:                               28
       Number of Cartesian basis functions:                                  136
       Number of spherical basis functions:                                  106
       Norm type:                                                              2

       Normalised Cartesian orbitals:

                        Set   Shell   Orbital            Exponent    Coefficient

                          1       1    1s              280.556612      48.856851

                          2       1    1s               60.230247      15.408880

                          3       1    1s               22.116651       7.268581

                          4       1    1s                6.862093       3.021708

                          5       1    1s                1.562255       0.995919

                          6       1    1s                0.912450       0.665376

                          7       1    1s                0.502749       0.425524

                          8       1    1s                0.215823       0.225675

                          9       1    1s                0.101536       0.128196

                         10       1    1px              24.231865      76.634379
                         10       1    1py              24.231865      76.634379
                         10       1    1pz              24.231865      76.634379

                         11       1    1px               6.476451      14.726905
                         11       1    1py               6.476451      14.726905
                         11       1    1pz               6.476451      14.726905

                         12       1    1px               2.129088       3.665914
                         12       1    1py               2.129088       3.665914
                         12       1    1pz               2.129088       3.665914

                         13       1    1px               1.037564       1.492652
                         13       1    1py               1.037564       1.492652
                         13       1    1pz               1.037564       1.492652

                         14       1    1px               0.549413       0.674238
                         14       1    1py               0.549413       0.674238
                         14       1    1pz               0.549413       0.674238

                         15       1    1px               0.281527       0.292307
                         15       1    1py               0.281527       0.292307
                         15       1    1pz               0.281527       0.292307

                         16       1    1px               0.115060       0.095520
                         16       1    1py               0.115060       0.095520
                         16       1    1pz               0.115060       0.095520

                         17       1    1dx2              9.718981      88.053322
                         17       1    1dxy              9.718981     152.512828
                         17       1    1dxz              9.718981     152.512828
                         17       1    1dy2              9.718981      88.053322
                         17       1    1dyz              9.718981     152.512828
                         17       1    1dz2              9.718981      88.053322

                         18       1    1dx2              3.035148      11.487463
                         18       1    1dxy              3.035148      19.896869
                         18       1    1dxz              3.035148      19.896869
                         18       1    1dy2              3.035148      11.487463
                         18       1    1dyz              3.035148      19.896869
                         18       1    1dz2              3.035148      11.487463

                         19       1    1dx2              1.467774       3.221535
                         19       1    1dxy              1.467774       5.579863
                         19       1    1dxz              1.467774       5.579863
                         19       1    1dy2              1.467774       3.221535
                         19       1    1dyz              1.467774       5.579863
                         19       1    1dz2              1.467774       3.221535

                         20       1    1dx2              0.573708       0.622471
                         20       1    1dxy              0.573708       1.078151
                         20       1    1dxz              0.573708       1.078151
                         20       1    1dy2              0.573708       0.622471
                         20       1    1dyz              0.573708       1.078151
                         20       1    1dz2              0.573708       0.622471

                         21       1    1dx2              0.290556       0.189261
                         21       1    1dxy              0.290556       0.327810
                         21       1    1dxz              0.290556       0.327810
                         21       1    1dy2              0.290556       0.189261
                         21       1    1dyz              0.290556       0.327810
                         21       1    1dz2              0.290556       0.189261

                         22       1    1dx2              0.148905       0.058749
                         22       1    1dxy              0.148905       0.101756
                         22       1    1dxz              0.148905       0.101756
                         22       1    1dy2              0.148905       0.058749
                         22       1    1dyz              0.148905       0.101756
                         22       1    1dz2              0.148905       0.058749

                         23       1    1fx3              2.275620       9.363300
                         23       1    1fx2y             2.275620      20.936975
                         23       1    1fx2z             2.275620      20.936975
                         23       1    1fxy2             2.275620      20.936975
                         23       1    1fxyz             2.275620      36.263904
                         23       1    1fxz2             2.275620      20.936975
                         23       1    1fy3              2.275620       9.363300
                         23       1    1fy2z             2.275620      20.936975
                         23       1    1fyz2             2.275620      20.936975
                         23       1    1fz3              2.275620       9.363300

                         24       1    1fx3              1.196890       2.205852
                         24       1    1fx2y             1.196890       4.932435
                         24       1    1fx2z             1.196890       4.932435
                         24       1    1fxy2             1.196890       4.932435
                         24       1    1fxyz             1.196890       8.543228
                         24       1    1fxz2             1.196890       4.932435
                         24       1    1fy3              1.196890       2.205852
                         24       1    1fy2z             1.196890       4.932435
                         24       1    1fyz2             1.196890       4.932435
                         24       1    1fz3              1.196890       2.205852

                         25       1    1fx3              0.541575       0.370413
                         25       1    1fx2y             0.541575       0.828268
                         25       1    1fx2z             0.541575       0.828268
                         25       1    1fxy2             0.541575       0.828268
                         25       1    1fxyz             0.541575       1.434603
                         25       1    1fxz2             0.541575       0.828268
                         25       1    1fy3              0.541575       0.370413
                         25       1    1fy2z             0.541575       0.828268
                         25       1    1fyz2             0.541575       0.828268
                         25       1    1fz3              0.541575       0.370413

                         26       1    1fx3              0.201793       0.040178
                         26       1    1fx2y             0.201793       0.089842
                         26       1    1fx2z             0.201793       0.089842
                         26       1    1fxy2             0.201793       0.089842
                         26       1    1fxyz             0.201793       0.155610
                         26       1    1fxz2             0.201793       0.089842
                         26       1    1fy3              0.201793       0.040178
                         26       1    1fy2z             0.201793       0.089842
                         26       1    1fyz2             0.201793       0.089842
                         26       1    1fz3              0.201793       0.040178

                         27       1    1gx4              1.216610       1.908103
                         27       1    1gx3y             1.216610       5.048367
                         27       1    1gx3z             1.216610       5.048367
                         27       1    1gx2y2            1.216610       6.517414
                         27       1    1gx2yz            1.216610      11.288491
                         27       1    1gx2z2            1.216610       6.517414
                         27       1    1gxy3             1.216610       5.048367
                         27       1    1gxy2z            1.216610      11.288491
                         27       1    1gxyz2            1.216610      11.288491
                         27       1    1gxz3             1.216610       5.048367
                         27       1    1gy4              1.216610       1.908103
                         27       1    1gy3z             1.216610       5.048367
                         27       1    1gy2z2            1.216610       6.517414
                         27       1    1gyz3             1.216610       5.048367
                         27       1    1gz4              1.216610       1.908103

                         28       1    1gx4              0.435998       0.113505
                         28       1    1gx3y             0.435998       0.300307
                         28       1    1gx3z             0.435998       0.300307
                         28       1    1gx2y2            0.435998       0.387695
                         28       1    1gx2yz            0.435998       0.671507
                         28       1    1gx2z2            0.435998       0.387695
                         28       1    1gxy3             0.435998       0.300307
                         28       1    1gxy2z            0.435998       0.671507
                         28       1    1gxyz2            0.435998       0.671507
                         28       1    1gxz3             0.435998       0.300307
                         28       1    1gy4              0.435998       0.113505
                         28       1    1gy3z             0.435998       0.300307
                         28       1    1gy2z2            0.435998       0.387695
                         28       1    1gyz3             0.435998       0.300307
                         28       1    1gz4              0.435998       0.113505

       Atomic covalent radius [Angstrom]:                                  0.770

       Atomic van der Waals radius [Angstrom]:                             1.700

     The atoms of this atomic kind are PAW atoms (GAPW):
       Hard Gaussian function radius:                                      1.512
       Rho0 radius:                                                        1.512
       Maximum GTO radius used for PAW projector construction:            24.566

     GAPW Soft Basis Set                                        aug-cc-pvdz_soft

       Number of orbital shell sets:                                           6
       Number of orbital shells:                                               9
       Number of primitive Cartesian functions:                               10
       Number of Cartesian basis functions:                                   25
       Number of spherical basis functions:                                   23
       Norm type:                                                              2

       Normalised Cartesian orbitals:

                        Set   Shell   Orbital            Exponent    Coefficient

                          1       1    1s                2.797000       0.439427
                                                         0.521500       0.006650
                                                         0.159600      -0.000574

                          1       2    2s                2.797000      -0.196168
                                                         0.521500       0.238162
                                                         0.159600       0.104468

                          1       3    3s                2.797000       0.000000
                                                         0.521500       0.000000
                                                         0.159600       0.179964

                          2       1    1s                0.046900       0.071827

                          3       1    1px               2.002000       0.711071
                                                         0.545600       0.339917
                                                         0.151700       0.063270
                          3       1    1py               2.002000       0.711071
                                                         0.545600       0.339917
                                                         0.151700       0.063270
                          3       1    1pz               2.002000       0.711071
                                                         0.545600       0.339917
                                                         0.151700       0.063270

                          3       2    2px               2.002000       0.000000
                                                         0.545600       0.000000
                                                         0.151700       0.134950
                          3       2    2py               2.002000       0.000000
                                                         0.545600       0.000000
                                                         0.151700       0.134950
                          3       2    2pz               2.002000       0.000000
                                                         0.545600       0.000000
                                                         0.151700       0.134950

                          4       1    1px               0.040410       0.025826
                          4       1    1py               0.040410       0.025826
                          4       1    1pz               0.040410       0.025826

                          5       1    1dx2              0.550000       0.578155
                          5       1    1dxy              0.550000       1.001394
                          5       1    1dxz              0.550000       1.001394
                          5       1    1dy2              0.550000       0.578155
                          5       1    1dyz              0.550000       1.001394
                          5       1    1dz2              0.550000       0.578155

                          6       1    1dx2              0.151000       0.060203
                          6       1    1dxy              0.151000       0.104275
                          6       1    1dxz              0.151000       0.104275
                          6       1    1dy2              0.151000       0.060203
                          6       1    1dyz              0.151000       0.104275
                          6       1    1dz2              0.151000       0.060203

     AE Potential information for                                            ALL

       Description:                                       All-electron potential
                                          Krack, Parrinello, PCCP 2, 2105 (2000)

       Gaussian exponent of the core charge distribution:               4.109048
       Electronic configuration (s p d ...):                           4   2   0

  3. Atomic kind: N                                     Number of atoms:       5

     Orbital Basis Set                                               aug-cc-pvdz

       Number of orbital shell sets:                                           6
       Number of orbital shells:                                               9
       Number of primitive Cartesian functions:                               17
       Number of Cartesian basis functions:                                   25
       Number of spherical basis functions:                                   23
       Norm type:                                                              2

       Normalised Cartesian orbitals:

                        Set   Shell   Orbital            Exponent    Coefficient

                          1       1    1s             9046.000000       0.462754
                                                      1357.000000       0.858723
                                                       309.300000       1.440591
                                                        87.730000       2.108533
                                                        28.560000       2.454153
                                                        10.210000       1.825915
                                                         3.838000       0.543758
                                                         0.746600       0.008838
                                                         0.224800      -0.000666

                          1       2    2s             9046.000000      -0.101145
                                                      1357.000000      -0.192492
                                                       309.300000      -0.314968
                                                        87.730000      -0.501437
                                                        28.560000      -0.593976
                                                        10.210000      -0.643503
                                                         3.838000      -0.238093
                                                         0.746600       0.314268
                                                         0.224800       0.134678

                          1       3    3s             9046.000000       0.000000
                                                      1357.000000       0.000000
                                                       309.300000       0.000000
                                                        87.730000       0.000000
                                                        28.560000       0.000000
                                                        10.210000       0.000000
                                                         3.838000       0.000000
                                                         0.746600       0.000000
                                                         0.224800       0.232679

                          2       1    1s                0.061240       0.087738

                          3       1    1px              13.550000       1.479258
                                                         2.917000       1.180072
                                                         0.797300       0.548036
                                                         0.218500       0.098423
                          3       1    1py              13.550000       1.479258
                                                         2.917000       1.180072
                                                         0.797300       0.548036
                                                         0.218500       0.098423
                          3       1    1pz              13.550000       1.479258
                                                         2.917000       1.180072
                                                         0.797300       0.548036
                                                         0.218500       0.098423

                          3       2    2px              13.550000       0.000000
                                                         2.917000       0.000000
                                                         0.797300       0.000000
                                                         0.218500       0.212939
                          3       2    2py              13.550000       0.000000
                                                         2.917000       0.000000
                                                         0.797300       0.000000
                                                         0.218500       0.212939
                          3       2    2pz              13.550000       0.000000
                                                         2.917000       0.000000
                                                         0.797300       0.000000
                                                         0.218500       0.212939

                          4       1    1px               0.056110       0.038926
                          4       1    1py               0.056110       0.038926
                          4       1    1pz               0.056110       0.038926

                          5       1    1dx2              0.817000       1.155575
                          5       1    1dxy              0.817000       2.001514
                          5       1    1dxz              0.817000       2.001514
                          5       1    1dy2              0.817000       1.155575
                          5       1    1dyz              0.817000       2.001514
                          5       1    1dz2              0.817000       1.155575

                          6       1    1dx2              0.230000       0.125728
                          6       1    1dxy              0.230000       0.217768
                          6       1    1dxz              0.230000       0.217768
                          6       1    1dy2              0.230000       0.125728
                          6       1    1dyz              0.230000       0.217768
                          6       1    1dz2              0.230000       0.125728

     RI Auxiliary Basis Set                                    aug-cc-pvtz-rifit

       Number of orbital shell sets:                                          28
       Number of orbital shells:                                              28
       Number of primitive Cartesian functions:                               28
       Number of Cartesian basis functions:                                  136
       Number of spherical basis functions:                                  106
       Norm type:                                                              2

       Normalised Cartesian orbitals:

                        Set   Shell   Orbital            Exponent    Coefficient

                          1       1    1s              287.509269      49.762132

                          2       1    1s               64.276031      16.178821

                          3       1    1s               21.681924       7.161161

                          4       1    1s                7.906874       3.360576

                          5       1    1s                2.431967       1.387965

                          6       1    1s                1.222668       0.828689

                          7       1    1s                0.766748       0.583982

                          8       1    1s                0.311588       0.297232

                          9       1    1s                0.101097       0.127781

                         10       1    1px              34.965027     121.194365
                         10       1    1py              34.965027     121.194365
                         10       1    1pz              34.965027     121.194365

                         11       1    1px              10.323897      26.378169
                         11       1    1py              10.323897      26.378169
                         11       1    1pz              10.323897      26.378169

                         12       1    1px               2.898158       5.390049
                         12       1    1py               2.898158       5.390049
                         12       1    1pz               2.898158       5.390049

                         13       1    1px               1.407740       2.185714
                         13       1    1py               1.407740       2.185714
                         13       1    1pz               1.407740       2.185714

                         14       1    1px               0.850834       1.164786
                         14       1    1py               0.850834       1.164786
                         14       1    1pz               0.850834       1.164786

                         15       1    1px               0.373533       0.416247
                         15       1    1py               0.373533       0.416247
                         15       1    1pz               0.373533       0.416247

                         16       1    1px               0.148102       0.130961
                         16       1    1py               0.148102       0.130961
                         16       1    1pz               0.148102       0.130961

                         17       1    1dx2             13.908637     164.876008
                         17       1    1dxy             13.908637     285.573622
                         17       1    1dxz             13.908637     285.573622
                         17       1    1dy2             13.908637     164.876008
                         17       1    1dyz             13.908637     285.573622
                         17       1    1dz2             13.908637     164.876008

                         18       1    1dx2              4.584723      23.643264
                         18       1    1dxy              4.584723      40.951334
                         18       1    1dxz              4.584723      40.951334
                         18       1    1dy2              4.584723      23.643264
                         18       1    1dyz              4.584723      40.951334
                         18       1    1dz2              4.584723      23.643264

                         19       1    1dx2              2.210185       6.594160
                         19       1    1dxy              2.210185      11.421421
                         19       1    1dxz              2.210185      11.421421
                         19       1    1dy2              2.210185       6.594160
                         19       1    1dyz              2.210185      11.421421
                         19       1    1dz2              2.210185       6.594160

                         20       1    1dx2              0.837683       1.207255
                         20       1    1dxy              0.837683       2.091027
                         20       1    1dxz              0.837683       2.091027
                         20       1    1dy2              0.837683       1.207255
                         20       1    1dyz              0.837683       2.091027
                         20       1    1dz2              0.837683       1.207255

                         21       1    1dx2              0.419484       0.359883
                         21       1    1dxy              0.419484       0.623335
                         21       1    1dxz              0.419484       0.623335
                         21       1    1dy2              0.419484       0.359883
                         21       1    1dyz              0.419484       0.623335
                         21       1    1dz2              0.419484       0.359883

                         22       1    1dx2              0.134106       0.048916
                         22       1    1dxy              0.134106       0.084724
                         22       1    1dxz              0.134106       0.084724
                         22       1    1dy2              0.134106       0.048916
                         22       1    1dyz              0.134106       0.084724
                         22       1    1dz2              0.134106       0.048916

                         23       1    1fx3              3.473067      24.241470
                         23       1    1fx2y             3.473067      54.205574
                         23       1    1fx2z             3.473067      54.205574
                         23       1    1fxy2             3.473067      54.205574
                         23       1    1fxyz             3.473067      93.886808
                         23       1    1fxz2             3.473067      54.205574
                         23       1    1fy3              3.473067      24.241470
                         23       1    1fy2z             3.473067      54.205574
                         23       1    1fyz2             3.473067      54.205574
                         23       1    1fz3              3.473067      24.241470

                         24       1    1fx3              1.558946       3.997832
                         24       1    1fx2y             1.558946       8.939425
                         24       1    1fx2z             1.558946       8.939425
                         24       1    1fxy2             1.558946       8.939425
                         24       1    1fxyz             1.558946      15.483538
                         24       1    1fxz2             1.558946       8.939425
                         24       1    1fy3              1.558946       3.997832
                         24       1    1fy2z             1.558946       8.939425
                         24       1    1fyz2             1.558946       8.939425
                         24       1    1fz3              1.558946       3.997832

                         25       1    1fx3              0.846776       1.012591
                         25       1    1fx2y             0.846776       2.264223
                         25       1    1fx2z             0.846776       2.264223
                         25       1    1fxy2             0.846776       2.264223
                         25       1    1fxyz             0.846776       3.921748
                         25       1    1fxz2             0.846776       2.264223
                         25       1    1fy3              0.846776       1.012591
                         25       1    1fy2z             0.846776       2.264223
                         25       1    1fyz2             0.846776       2.264223
                         25       1    1fz3              0.846776       1.012591

                         26       1    1fx3              0.288587       0.089863
                         26       1    1fx2y             0.288587       0.200939
                         26       1    1fx2z             0.288587       0.200939
                         26       1    1fxy2             0.288587       0.200939
                         26       1    1fxyz             0.288587       0.348036
                         26       1    1fxz2             0.288587       0.200939
                         26       1    1fy3              0.288587       0.089863
                         26       1    1fy2z             0.288587       0.200939
                         26       1    1fyz2             0.288587       0.200939
                         26       1    1fz3              0.288587       0.089863

                         27       1    1gx4              1.776407       5.403523
                         27       1    1gx3y             1.776407      14.296377
                         27       1    1gx3z             1.776407      14.296377
                         27       1    1gx2y2            1.776407      18.456544
                         27       1    1gx2yz            1.776407      31.967672
                         27       1    1gx2z2            1.776407      18.456544
                         27       1    1gxy3             1.776407      14.296377
                         27       1    1gxy2z            1.776407      31.967672
                         27       1    1gxyz2            1.776407      31.967672
                         27       1    1gxz3             1.776407      14.296377
                         27       1    1gy4              1.776407       5.403523
                         27       1    1gy3z             1.776407      14.296377
                         27       1    1gy2z2            1.776407      18.456544
                         27       1    1gyz3             1.776407      14.296377
                         27       1    1gz4              1.776407       5.403523

                         28       1    1gx4              0.599812       0.272883
                         28       1    1gx3y             0.599812       0.721981
                         28       1    1gx3z             0.599812       0.721981
                         28       1    1gx2y2            0.599812       0.932074
                         28       1    1gx2yz            0.599812       1.614399
                         28       1    1gx2z2            0.599812       0.932074
                         28       1    1gxy3             0.599812       0.721981
                         28       1    1gxy2z            0.599812       1.614399
                         28       1    1gxyz2            0.599812       1.614399
                         28       1    1gxz3             0.599812       0.721981
                         28       1    1gy4              0.599812       0.272883
                         28       1    1gy3z             0.599812       0.721981
                         28       1    1gy2z2            0.599812       0.932074
                         28       1    1gyz3             0.599812       0.721981
                         28       1    1gz4              0.599812       0.272883

       Atomic covalent radius [Angstrom]:                                  0.750

       Atomic van der Waals radius [Angstrom]:                             1.550

     The atoms of this atomic kind are PAW atoms (GAPW):
       Hard Gaussian function radius:                                      1.512
       Rho0 radius:                                                        1.512
       Maximum GTO radius used for PAW projector construction:            24.566

     GAPW Soft Basis Set                                        aug-cc-pvdz_soft

       Number of orbital shell sets:                                           6
       Number of orbital shells:                                               9
       Number of primitive Cartesian functions:                               10
       Number of Cartesian basis functions:                                   25
       Number of spherical basis functions:                                   23
       Norm type:                                                              2

       Normalised Cartesian orbitals:

                        Set   Shell   Orbital            Exponent    Coefficient

                          1       1    1s                3.838000       0.543758
                                                         0.746600       0.008838
                                                         0.224800      -0.000666

                          1       2    2s                3.838000      -0.238093
                                                         0.746600       0.314268
                                                         0.224800       0.134678

                          1       3    3s                3.838000       0.000000
                                                         0.746600       0.000000
                                                         0.224800       0.232679

                          2       1    1s                0.061240       0.087738

                          3       1    1px               2.917000       1.180072
                                                         0.797300       0.548036
                                                         0.218500       0.098423
                          3       1    1py               2.917000       1.180072
                                                         0.797300       0.548036
                                                         0.218500       0.098423
                          3       1    1pz               2.917000       1.180072
                                                         0.797300       0.548036
                                                         0.218500       0.098423

                          3       2    2px               2.917000       0.000000
                                                         0.797300       0.000000
                                                         0.218500       0.212939
                          3       2    2py               2.917000       0.000000
                                                         0.797300       0.000000
                                                         0.218500       0.212939
                          3       2    2pz               2.917000       0.000000
                                                         0.797300       0.000000
                                                         0.218500       0.212939

                          4       1    1px               0.056110       0.038926
                          4       1    1py               0.056110       0.038926
                          4       1    1pz               0.056110       0.038926

                          5       1    1dx2              0.817000       1.155575
                          5       1    1dxy              0.817000       2.001514
                          5       1    1dxz              0.817000       2.001514
                          5       1    1dy2              0.817000       1.155575
                          5       1    1dyz              0.817000       2.001514
                          5       1    1dz2              0.817000       1.155575

                          6       1    1dx2              0.230000       0.125728
                          6       1    1dxy              0.230000       0.217768
                          6       1    1dxz              0.230000       0.217768
                          6       1    1dy2              0.230000       0.125728
                          6       1    1dyz              0.230000       0.217768
                          6       1    1dz2              0.230000       0.125728

     AE Potential information for                                            ALL

       Description:                                       All-electron potential
                                          Krack, Parrinello, PCCP 2, 2105 (2000)

       Gaussian exponent of the core charge distribution:               5.979100
       Electronic configuration (s p d ...):                           4   3   0


 MOLECULE KIND INFORMATION


 All atoms are their own molecule, skipping detailed information


 TOTAL NUMBERS AND MAXIMUM NUMBERS

  Total number of            - Atomic kinds:                                   3
                             - Atoms:                                         15
                             - Shell sets:                                    80
                             - Shells:                                       115
                             - Primitive Cartesian functions:                205
                             - Cartesian basis functions:                    295
                             - Spherical basis functions:                    275

  Maximum angular momentum of the orbital basis functions:                     2


 MODULE QUICKSTEP: ATOMIC COORDINATES IN ANGSTROM

   Atom Kind Element         X             Y             Z       Z(eff)     Mass
      1    1 H     1     10.844964      7.360900     10.000001   1.0000   1.0079
      2    1 H     1     12.004692     12.511851      9.999999   1.0000   1.0079
      3    1 H     1     13.182044     11.213036      9.999999   1.0000   1.0079
      4    1 H     1      6.817957     10.101816      9.999999   1.0000   1.0079
      5    1 H     1      7.158157     12.639101      9.999999   1.0000   1.0079
      6    2 C     6     10.532868      8.403149      9.999999   6.0000  12.0107
      7    2 C     6     11.229347     10.608602      9.999999   6.0000  12.0107
      8    2 C     6      9.870034     10.983483      9.999999   6.0000  12.0107
      9    2 C     6      8.945199      9.935335      9.999999   6.0000  12.0107
     10    2 C     6      7.963228     11.914843      9.999999   6.0000  12.0107
     11    3 N     7      9.211457      8.618211      9.999999   7.0000  14.0067
     12    3 N     7     11.542628      9.302846      9.999999   7.0000  14.0067
     13    3 N     7      7.719275     10.564775      9.999999   7.0000  14.0067
     14    3 N     7      9.253916     12.219445      9.999999   7.0000  14.0067
     15    3 N     7     12.222797     11.526758      9.999999   7.0000  14.0067



 SCF PARAMETERS         Density guess:                                   RESTART
                        --------------------------------------------------------
                        max_scf:                                             200
                        max_scf_history:                                       0
                        max_diis:                                              4
                        --------------------------------------------------------
                        eps_scf:                                        1.00E-09
                        eps_scf_history:                                0.00E+00
                        eps_diis:                                       1.00E-01
                        eps_eigval:                                     1.00E-05
                        --------------------------------------------------------
                        level_shift [a.u.]:                             0.000000
                        added MOs                                       240    0
                        --------------------------------------------------------
                        Mixing method:                            BROYDEN_MIXING
                                                charge density mixing in g-space
                        --------------------------------------------------------
                        No outer SCF

 PW_GRID| Information for grid number                                          1
 PW_GRID| Grid distributed over                                    16 processors
 PW_GRID| Real space group dimensions                                    16    1
 PW_GRID| the grid is blocked:                                                NO
 PW_GRID| Cutoff [a.u.]                                                    300.0
 PW_GRID| spherical cutoff:                                                   NO
 PW_GRID|   Bounds   1           -150     149                Points:         300
 PW_GRID|   Bounds   2           -150     149                Points:         300
 PW_GRID|   Bounds   3           -150     149                Points:         300
 PW_GRID| Volume element (a.u.^3)  0.2000E-02     Volume (a.u.^3)     53986.6767
 PW_GRID| Grid span                                                    FULLSPACE
 PW_GRID|   Distribution                         Average         Max         Min
 PW_GRID|   G-Vectors                          1687500.0     1687500     1687500
 PW_GRID|   G-Rays                                5625.0        5625        5625
 PW_GRID|   Real Space Points                  1687500.0     1710000     1620000

 PW_GRID| Information for grid number                                          2
 PW_GRID| Number of the reference grid                                         1
 PW_GRID| Grid distributed over                                    16 processors
 PW_GRID| Real space group dimensions                                    16    1
 PW_GRID| the grid is blocked:                                                NO
 PW_GRID| Cutoff [a.u.]                                                    100.0
 PW_GRID| spherical cutoff:                                                   NO
 PW_GRID|   Bounds   1            -90      89                Points:         180
 PW_GRID|   Bounds   2            -90      89                Points:         180
 PW_GRID|   Bounds   3            -90      89                Points:         180
 PW_GRID| Volume element (a.u.^3)  0.9257E-02     Volume (a.u.^3)     53986.6767
 PW_GRID| Grid span                                                    FULLSPACE
 PW_GRID|   Distribution                         Average         Max         Min
 PW_GRID|   G-Vectors                           364500.0      364680      364320
 PW_GRID|   G-Rays                                2025.0        2026        2024
 PW_GRID|   Real Space Points                   364500.0      388800      356400

 PW_GRID| Information for grid number                                          3
 PW_GRID| Number of the reference grid                                         1
 PW_GRID| Grid distributed over                                    16 processors
 PW_GRID| Real space group dimensions                                    16    1
 PW_GRID| the grid is blocked:                                                NO
 PW_GRID| Cutoff [a.u.]                                                     33.3
 PW_GRID| spherical cutoff:                                                   NO
 PW_GRID|   Bounds   1            -50      49                Points:         100
 PW_GRID|   Bounds   2            -50      49                Points:         100
 PW_GRID|   Bounds   3            -50      49                Points:         100
 PW_GRID| Volume element (a.u.^3)  0.5399E-01     Volume (a.u.^3)     53986.6767
 PW_GRID| Grid span                                                    FULLSPACE
 PW_GRID|   Distribution                         Average         Max         Min
 PW_GRID|   G-Vectors                            62500.0       62600       62400
 PW_GRID|   G-Rays                                 625.0         626         624
 PW_GRID|   Real Space Points                    62500.0       70000       60000

 PW_GRID| Information for grid number                                          4
 PW_GRID| Number of the reference grid                                         1
 PW_GRID| Grid distributed over                                    16 processors
 PW_GRID| Real space group dimensions                                    16    1
 PW_GRID| the grid is blocked:                                                NO
 PW_GRID| Cutoff [a.u.]                                                     11.1
 PW_GRID| spherical cutoff:                                                   NO
 PW_GRID|   Bounds   1            -30      29                Points:          60
 PW_GRID|   Bounds   2            -30      29                Points:          60
 PW_GRID|   Bounds   3            -30      29                Points:          60
 PW_GRID| Volume element (a.u.^3)  0.2499         Volume (a.u.^3)     53986.6767
 PW_GRID| Grid span                                                    FULLSPACE
 PW_GRID|   Distribution                         Average         Max         Min
 PW_GRID|   G-Vectors                            13500.0       13560       13440
[...]
    31 Broy./Diag. 0.40E+00    3.4     0.00009538      -466.8738533560 -1.53E-05
    32 Broy./Diag. 0.40E+00    3.4     0.00020521      -466.8738431123  1.02E-05
    33 Broy./Diag. 0.40E+00    3.4     0.00007383      -466.8738377203  5.39E-06
    34 Broy./Diag. 0.40E+00    3.5     0.00004046      -466.8738427119 -4.99E-06
    35 Broy./Diag. 0.40E+00    3.4     0.00006053      -466.8738411285  1.58E-06
    36 Broy./Diag. 0.40E+00    3.4     0.00003820      -466.8738444104 -3.28E-06
    37 Broy./Diag. 0.40E+00    3.5     0.00003534      -466.8738454953 -1.08E-06
    38 Broy./Diag. 0.40E+00    3.4     0.00001194      -466.8738418384  3.66E-06
    39 Broy./Diag. 0.40E+00    3.4     0.00002010      -466.8738425353 -6.97E-07
    40 Broy./Diag. 0.40E+00    3.4     0.00002073      -466.8738427766 -2.41E-07
    41 Broy./Diag. 0.40E+00    3.4     0.00001327      -466.8738416332  1.14E-06
    42 Broy./Diag. 0.40E+00    3.4     0.00000978      -466.8738420978 -4.65E-07
    43 Broy./Diag. 0.40E+00    3.4     0.00000498      -466.8738421065 -8.72E-09
    44 Broy./Diag. 0.40E+00    3.4     0.00000239      -466.8738416038  5.03E-07
    45 Broy./Diag. 0.40E+00    3.4     0.00000106      -466.8738419318 -3.28E-07
    46 Broy./Diag. 0.40E+00    3.4     0.00000376      -466.8738419409 -9.15E-09
    47 Broy./Diag. 0.40E+00    3.4     0.00000074      -466.8738417691  1.72E-07
    48 Broy./Diag. 0.40E+00    3.4     0.00000369      -466.8738419499 -1.81E-07
    49 Broy./Diag. 0.40E+00    3.4     0.00000453      -466.8738418818  6.81E-08
    50 Broy./Diag. 0.40E+00    3.4     0.00000063      -466.8738417049  1.77E-07
    51 Broy./Diag. 0.40E+00    3.4     0.00000113      -466.8738418041 -9.92E-08
    52 Broy./Diag. 0.40E+00    3.4     0.00000073      -466.8738417834  2.07E-08
    53 Broy./Diag. 0.40E+00    3.4     0.00000132      -466.8738417113  7.21E-08
    54 Broy./Diag. 0.40E+00    3.4     0.00000077      -466.8738417645 -5.32E-08
    55 Broy./Diag. 0.40E+00    3.5     0.00000095      -466.8738417633  1.19E-09
    56 Broy./Diag. 0.40E+00    3.4     0.00000033      -466.8738417324  3.09E-08
    57 Broy./Diag. 0.40E+00    3.4     0.00000017      -466.8738417512 -1.88E-08
    58 Broy./Diag. 0.40E+00    3.4     0.00000014      -466.8738417555 -4.22E-09
    59 Broy./Diag. 0.40E+00    3.4     0.00000007      -466.8738417467  8.76E-09
    60 Broy./Diag. 0.40E+00    3.4     0.00000012      -466.8738417532 -6.52E-09
    61 Broy./Diag. 0.40E+00    3.4     0.00000005      -466.8738417545 -1.32E-09
    62 Broy./Diag. 0.40E+00    3.4     0.00000008      -466.8738417492  5.35E-09
    63 Broy./Diag. 0.40E+00    3.4     0.00000008      -466.8738417520 -2.85E-09
    64 Broy./Diag. 0.40E+00    3.4     0.00000006      -466.8738417528 -7.92E-10
    65 Broy./Diag. 0.40E+00    3.5     0.00000002      -466.8738417504  2.39E-09
    66 Broy./Diag. 0.40E+00    3.4     0.00000002      -466.8738417517 -1.26E-09
    67 Broy./Diag. 0.40E+00    3.4     0.00000002      -466.8738417520 -3.20E-10
    68 Broy./Diag. 0.40E+00    3.4     0.00000001      -466.8738417508  1.25E-09
    69 Broy./Diag. 0.40E+00    3.4     0.00000002      -466.8738417515 -7.75E-10
    70 Broy./Diag. 0.40E+00    3.4     6.1303E-09      -466.8738417518 -2.77E-10
    71 Broy./Diag. 0.40E+00    3.4     9.1631E-09      -466.8738417511  7.33E-10
    72 Broy./Diag. 0.40E+00    3.4     9.1735E-09      -466.8738417513 -2.72E-10
    73 Broy./Diag. 0.40E+00    3.4     3.1679E-09      -466.8738417514 -1.00E-10
    74 Broy./Diag. 0.40E+00    3.4     4.4426E-09      -466.8738417512  2.35E-10
    75 Broy./Diag. 0.40E+00    3.4     3.5932E-09      -466.8738417513 -1.32E-10
    76 Broy./Diag. 0.40E+00    3.5     2.1386E-09      -466.8738417514 -5.01E-11
    77 Broy./Diag. 0.40E+00    3.4     1.5325E-09      -466.8738417512  1.54E-10
    78 Broy./Diag. 0.40E+00    3.4     1.0860E-09      -466.8738417513 -6.53E-11
    79 Broy./Diag. 0.40E+00    3.4     1.1491E-09      -466.8738417513 -4.42E-11
    80 Broy./Diag. 0.40E+00    3.4     9.3573E-10      -466.8738417513  3.19E-11

  *** SCF run converged in    80 steps ***


  Electronic density on regular grids:        -51.3338600402       18.6661399598
  Core density on regular grids:               70.0000000000       -0.0000000000
  Hard and soft densities (Lebedev):         -353.9343517607     -335.2682112958
  Total Rho_soft + Rho1_hard - Rho1_soft      -70.0000005052
  Total charge density (r-space):              -0.0000005052
  Total Rho_soft + Rho0_soft (g-space):        -0.0000005908

  Overlap energy of the core charge distribution:               0.00000729153507
  Self energy of the core charge distribution:               -391.61398660552595
  Core Hamiltonian energy:                                    -70.94582176774685
  Hartree energy:                                             144.27572573656880
  Exchange-correlation energy:                                -18.65484759484072
  Hartree-Fock Exchange energy:                               -15.18240000356518

  GAPW| Exc from hard and soft atomic rho1:                   -29.22847126233102
  GAPW| local Eh = 1 center integrals:                        -85.52404754540967

  Total energy:                                              -466.87384175131552

 !-----------------------------------------------------------------------------!
                     Mulliken Population Analysis

 #  Atom  Element  Kind  Atomic population                           Net charge
       1     H        1          1.382758                             -0.382758
       2     H        1          1.041515                             -0.041515
       3     H        1          1.052016                             -0.052016
       4     H        1          1.131856                             -0.131856
       5     H        1          1.250669                             -0.250669
       6     C        2          5.496260                              0.503740
       7     C        2          5.647730                              0.352270
       8     C        2          5.032326                              0.967674
       9     C        2          5.633974                              0.366026
      10     C        2          5.181368                              0.818632
      11     N        3          7.497433                             -0.497433
      12     N        3          7.479877                             -0.479877
      13     N        3          7.291343                             -0.291343
      14     N        3          7.701746                             -0.701746
      15     N        3          7.179129                             -0.179129
 # Total charge                             70.000000                  0.000000

 !-----------------------------------------------------------------------------!

 !-----------------------------------------------------------------------------!
                           Hirshfeld Charges

  #Atom  Element  Kind  Ref Charge     Population                    Net charge
      1       H      1       1.000          0.511                         0.489
      2       H      1       1.000          0.434                         0.566
      3       H      1       1.000          0.435                         0.565
      4       H      1       1.000          0.431                         0.569
      5       H      1       1.000          0.499                         0.501
      6       C      2       6.000          6.226                        -0.226
      7       C      2       6.000          5.765                         0.235
      8       C      2       6.000          5.965                         0.035
      9       C      2       6.000          5.823                         0.177
     10       C      2       6.000          6.269                        -0.269
     11       N      3       7.000          7.347                        -0.347
     12       N      3       7.000          7.370                        -0.370
     13       N      3       7.000          7.536                        -0.536
     14       N      3       7.000          7.351                        -0.351
     15       N      3       7.000          8.007                        -1.007

  Total Charge                                                            0.034
 !-----------------------------------------------------------------------------!
  
 -------------------------------------------------------------------------------
 -                                                                             -
 -                          BANDSTRUCTURE CALCULATION                          -
 -                                                                             -
 -------------------------------------------------------------------------------
  
 Number of occupied molecular orbitals (MOs) = Number of occupied bands       35
 Number of unoccupied (= virtual) MOs = Number of unoccupied bands           240
 Number of Gaussian basis functions for MOs                                  275
 K-point mesh for the density of states (DOS) and the self-energy      1   1   1
  
 -------------------------------------------------------------------------------
 -                                                                             -
 -                              GW CALCULATION                                 -
 -                                                                             -
 -------------------------------------------------------------------------------
  
 Input: Number of time/freq. points                                           30
 Input: Filter threshold for sparse tensor operations                    1.0E-08
 Apply Hedin shift                                                             F
  
 Number of auxiliary Gaussian basis functions for , , W                   1290
 Cutoff radius for the truncated Coulomb operator in ^x:               2645.9 
 Cutoff radius for the truncated Coulomb operator in RI metric:            3.0 
 Regularization parameter of RI                                          0.0E+00
 Lattice sum size for V(k):                                                    3
  
 K-point mesh 1 for , , W                                            1   1   1
 K-point mesh 2 for , , W (for k-point extrapolation of W)           1   1   1
 Approximate the k-point extrapolation                                         F
 Group size for tensor operations                                             16
 
 Computed 3-center integrals (|P), execution time                        2.2 s
 Percentage of non-zero (|P)                                         100.000 %
 Max. distance between , in non-zero (|P)                              6.5 A
 Required memory if storing all 3-center integrals (|P)                   0 GB
 
 Number of i and j atoms in M_P(), N_Q():                               13
 Number of inner loop atoms for  in M_P = sum_ (|P) G_                15
 
 SCF direct band gap (eV)                                                   5.67
 Max. SCF eigval diff. (eV)                                            272507.61
 E-Range for minimax grid                                               48042.35
 Number of Pad parameters for analytic continuation:                          7
 
 Computed (i,k=0) for time point            1 / 30,    Execution time    4.9 s
 Computed (i,k=0) for time point            2 / 30,    Execution time    4.2 s
 Computed (i,k=0) for time point            3 / 30,    Execution time    4.2 s
 Computed (i,k=0) for time point            4 / 30,    Execution time    4.2 s
 Computed (i,k=0) for time point            5 / 30,    Execution time    4.2 s
 Computed (i,k=0) for time point            6 / 30,    Execution time    4.2 s
 Computed (i,k=0) for time point            7 / 30,    Execution time    4.2 s
 Computed (i,k=0) for time point            8 / 30,    Execution time    4.2 s
 Computed (i,k=0) for time point            9 / 30,    Execution time    4.3 s
 Computed (i,k=0) for time point           10 / 30,    Execution time    4.2 s
 Computed (i,k=0) for time point           11 / 30,    Execution time    4.2 s
 Computed (i,k=0) for time point           12 / 30,    Execution time    4.2 s
 Computed (i,k=0) for time point           13 / 30,    Execution time    4.2 s
 Computed (i,k=0) for time point           14 / 30,    Execution time    4.2 s
 Computed (i,k=0) for time point           15 / 30,    Execution time    4.2 s
 Computed (i,k=0) for time point           16 / 30,    Execution time    4.2 s
 Computed (i,k=0) for time point           17 / 30,    Execution time    4.2 s
 Computed (i,k=0) for time point           18 / 30,    Execution time    4.2 s
 Computed (i,k=0) for time point           19 / 30,    Execution time    4.2 s
 Computed (i,k=0) for time point           20 / 30,    Execution time    4.2 s
 Computed (i,k=0) for time point           21 / 30,    Execution time    4.2 s
 Computed (i,k=0) for time point           22 / 30,    Execution time    4.2 s
 Computed (i,k=0) for time point           23 / 30,    Execution time    4.2 s
 Computed (i,k=0) for time point           24 / 30,    Execution time    4.2 s
 Computed (i,k=0) for time point           25 / 30,    Execution time    4.2 s
 Computed (i,k=0) for time point           26 / 30,    Execution time    4.2 s
 Computed (i,k=0) for time point           27 / 30,    Execution time    4.3 s
 Computed (i,k=0) for time point           28 / 30,    Execution time    4.2 s
 Computed (i,k=0) for time point           29 / 30,    Execution time    4.2 s
 Computed (i,k=0) for time point           30 / 30,    Execution time    4.2 s
 
 Computed W(i,k) for k-point batch           1 /  1,    Execution time   14.4 s
 
 Computed ^x(k=0),                                      Execution time    5.7 s
 
 Computed ^c(i,k=0) for time point          1 / 30,    Execution time    8.5 s
 Computed ^c(i,k=0) for time point          2 / 30,    Execution time    8.4 s
 Computed ^c(i,k=0) for time point          3 / 30,    Execution time    8.4 s
 Computed ^c(i,k=0) for time point          4 / 30,    Execution time    8.5 s
 Computed ^c(i,k=0) for time point          5 / 30,    Execution time    8.4 s
 Computed ^c(i,k=0) for time point          6 / 30,    Execution time    8.4 s
 Computed ^c(i,k=0) for time point          7 / 30,    Execution time    8.4 s
 Computed ^c(i,k=0) for time point          8 / 30,    Execution time    8.5 s
 Computed ^c(i,k=0) for time point          9 / 30,    Execution time    8.4 s
 Computed ^c(i,k=0) for time point         10 / 30,    Execution time    8.4 s
 Computed ^c(i,k=0) for time point         11 / 30,    Execution time    8.4 s
 Computed ^c(i,k=0) for time point         12 / 30,    Execution time    8.4 s
 Computed ^c(i,k=0) for time point         13 / 30,    Execution time    8.4 s
 Computed ^c(i,k=0) for time point         14 / 30,    Execution time    8.4 s
 Computed ^c(i,k=0) for time point         15 / 30,    Execution time    8.4 s
 Computed ^c(i,k=0) for time point         16 / 30,    Execution time    8.4 s
 Computed ^c(i,k=0) for time point         17 / 30,    Execution time    8.4 s
 Computed ^c(i,k=0) for time point         18 / 30,    Execution time    8.5 s
 Computed ^c(i,k=0) for time point         19 / 30,    Execution time    8.5 s
 Computed ^c(i,k=0) for time point         20 / 30,    Execution time    8.4 s
 Computed ^c(i,k=0) for time point         21 / 30,    Execution time    8.4 s
 Computed ^c(i,k=0) for time point         22 / 30,    Execution time    8.4 s
 Computed ^c(i,k=0) for time point         23 / 30,    Execution time    8.4 s
 Computed ^c(i,k=0) for time point         24 / 30,    Execution time    8.4 s
 Computed ^c(i,k=0) for time point         25 / 30,    Execution time    8.4 s
 Computed ^c(i,k=0) for time point         26 / 30,    Execution time    8.4 s
 Computed ^c(i,k=0) for time point         27 / 30,    Execution time    8.4 s
 Computed ^c(i,k=0) for time point         28 / 30,    Execution time    8.4 s
 Computed ^c(i,k=0) for time point         29 / 30,    Execution time    8.5 s
 Computed ^c(i,k=0) for time point         30 / 30,    Execution time    8.4 s
 
 Sparsity of ^c(i,k=0): Percentage of skipped atom pairs:                0.0 %
 Retaining nl_3c for RTBSE

 
 SCF valence band maximum (eV):                                           -6.451
 SCF conduction band minimum (eV):                                        -0.779
 SCF indirect band gap (eV):                                               5.672
 SCF direct band gap (eV):                                                 5.672
 
 G0W0 valence band maximum (eV):                                          -7.721
 G0W0 conduction band minimum (eV):                                        0.586
 G0W0 indirect band gap (eV):                                              8.306
 G0W0 direct band gap (eV):                                                8.306
 
 Hartree-Fock with SCF orbitals valence band maximum (eV):                -8.066
 Hartree-Fock with SCF orbitals conduction band minimum (eV)               1.199
 Hartree-Fock with SCF orbitals indirect band gap (eV):                    9.265
 Hartree-Fock with SCF orbitals direct band gap (eV):                      9.265

 ENERGY| Total FORCE_EVAL ( QS ) energy [hartree]           -466.873841751315524
 RTBSE| Approximate size of the 3c integrals                       0.74E+003 MiB
 
 /-----------------------------------------------------------------------------\
 |                                                                             |
 |                    Real Time Bethe-Salpeter Propagation                     |
 |                                                                             |
 \-----------------------------------------------------------------------------/
 
 Exponential method                                                          BCH
 Reference Hamiltonian                                                      G0W0
 Apply delta pulse                                                             T
 Use adaptive timestep                                                         F
 Use eigenstate removal                                                        F


 *** WARNING in emd/rt_bse_io.F:488 :: Restart required but no info file ***
 *** found - starting from sim_step given in input                       ***


 *** WARNING in emd/rt_bse_io.F:514 :: Restart without some restart ***
 *** matrices - starting from SCF density.                          ***


 *** WARNING in emd/rt_bse_io.F:567 :: Restart without previous moments - ***
 *** unknown moments trace set to zero.                                   ***

 RTBSE| Applying delta pulse
 RTBSE| Delta pulse elements (a.u.) :   -0.1000E-003  -0.0000E+000  -0.0000E+000
 RTBSE| Metric difference after delta kick                       0.42636173E-003
 RTBSE| Simulation step         Convergence     Electron number  ETRS Iterations
 RTBSE|               0     0.45073079E-007     0.70000000E+002               51

 *******************************************************************************
 *   ___                                                                       *
 *  /   \                                                                      *
 * [ABORT]                                                                     *
 *  \___/                          ETRS did not converge                       *
 *    |                                                                        *
 *  O/|                                                                        *
 * /| |                                                                        *
 * / \                                                        emd/rt_bse.F:283 *
 *******************************************************************************


 ===== Routine Calling Stack ===== 

            2 run_propagation_bse
            1 CP2K
