 DBCSR| CPU Multiplication driver                                           XSMM (U)
 DBCSR| Multrec recursion limit                                              512 (U)
 DBCSR| Multiplication stack size                                           1000 (D)
 DBCSR| Maximum elements for images                                    UNLIMITED (U)
 DBCSR| Multiplicative factor virtual images                                   1 (U)
 DBCSR| Use multiplication densification                                       T (D)
 DBCSR| Multiplication size stacks                                             3 (U)
 DBCSR| Use memory pool for CPU allocation                                     F (U)
 DBCSR| Number of 3D layers                                               SINGLE (U)
 DBCSR| Use MPI memory allocation                                              F (U)
 DBCSR| Use RMA algorithm                                                      F (U)
 DBCSR| Use Communication thread                                               T (U)
 DBCSR| Communication thread load                                             79 (D)
 DBCSR| MPI: My process id                                                     0
 DBCSR| MPI: Number of processes                                              16
 DBCSR| OMP: Current number of threads                                         3
 DBCSR| OMP: Max number of threads                                             3
 DBCSR| Split modifier for TAS multiplication algorithm                  1.0E+00 (U)


  **** **** ******  **  PROGRAM STARTED AT               2025-01-27 14:10:42.035
 ***** ** ***  *** **   PROGRAM STARTED ON                          i01r11c05s03
 **    ****   ******    PROGRAM STARTED BY                               di75qec
 ***** **    ** ** **   PROGRAM PROCESS ID                               3087099
  **** **  *******  **  PROGRAM STARTED IN /hppfs/scratch/09/di75qec/Hexatriene_
                                           scf.4256187

 CP2K| version string:                 CP2K version 2025.1 (Development Version)
 CP2K| source code revision number:                                  git:521e606
 CP2K| cp2kflags: omp libint fftw3 libxc parallel scalapack xsmm max_contr=4    
 CP2K| is freely available from                            https://www.cp2k.org/
 CP2K| Program compiled at                       Fri 24 Jan 2025 03:07:07 PM CET
 CP2K| Program compiled on                                               login03
 CP2K| Program compiled for                                        Supermuc-foss
 CP2K| Data directory path               /dss/dsshome1/09/di75qec/CP2K-foss/data
 CP2K| Input file name                                                   scf.inp

 GLOBAL| Force Environment number                                              1
 GLOBAL| Basis set file name                                         aug-cc-pvdz
 GLOBAL| Potential file name                                      ALL_POTENTIALS
 GLOBAL| MM Potential file name                                     MM_POTENTIAL
 GLOBAL| Coordinate file name                                          coord.xyz
 GLOBAL| Method name                                                        CP2K
 GLOBAL| Project name                                                 Hexatriene
 GLOBAL| Run type                                                 RT_PROPAGATION
 GLOBAL| FFT library                                                       FFTW3
 GLOBAL| Diagonalization library                                       ScaLAPACK
 GLOBAL| DGEMM library                                                      BLAS
 GLOBAL| Orthonormality check for eigenvectors                          DISABLED
 GLOBAL| Matrix multiplication library                                 ScaLAPACK
 GLOBAL| All-to-all communication in single precision                          F
 GLOBAL| FFTs using library dependent lengths                                  F
 GLOBAL| Grid backend                                                       AUTO
 GLOBAL| Global print level                                               MEDIUM
 GLOBAL| MPI I/O enabled                                                       T
 GLOBAL| Total number of message passing processes                            16
 GLOBAL| Number of threads for this process                                    3
 GLOBAL| This output is from process                                           0
 GLOBAL| OpenMP stack size per thread (OMP_STACKSIZE)                    default
 GLOBAL| CPU model name             Intel(R) Xeon(R) Platinum 8174 CPU @ 3.10GHz
 GLOBAL| CPUID                                                              1003
 GLOBAL| Compiled for CPUID                                                    0

 *** HINT in environment.F:928 :: The compiler target flags (generic) used ***
 *** to build this binary cannot exploit all extensions of this CPU model  ***
 *** (x86_avx512). Consider compiler target flags as part of FCFLAGS and   ***
 *** CFLAGS (ARCH file).                                                   ***


 MEMORY| system memory details [Kb]
 MEMORY|                        rank 0           min           max       average
 MEMORY| MemTotal             98436664      98436664      98436664      98436664
 MEMORY| MemFree              84260108      84260108      84260108      84260108
 MEMORY| Buffers                     0             0             0             0
 MEMORY| Cached                2370660       2370660       2370660       2370660
 MEMORY| Slab                  1217588       1217588       1217588       1217588
 MEMORY| SReclaimable           269068        269068        269068        269068
 MEMORY| MemLikelyFree        86899836      86899836      86899836      86899836


 *** Fundamental physical constants (SI units) ***

 *** Literature: B. J. Mohr and B. N. Taylor,
 ***             CODATA recommended values of the fundamental physical
 ***             constants: 2006, Web Version 5.1
 ***             http://physics.nist.gov/constants

 Speed of light in vacuum [m/s]                             2.99792458000000E+08
 Magnetic constant or permeability of vacuum [N/A**2]       1.25663706143592E-06
 Electric constant or permittivity of vacuum [F/m]          8.85418781762039E-12
 Planck constant (h) [J*s]                                  6.62606896000000E-34
 Planck constant (h-bar) [J*s]                              1.05457162825177E-34
 Elementary charge [C]                                      1.60217648700000E-19
 Electron mass [kg]                                         9.10938215000000E-31
 Electron g factor [ ]                                     -2.00231930436220E+00
 Proton mass [kg]                                           1.67262163700000E-27
 Fine-structure constant                                    7.29735253760000E-03
 Rydberg constant [1/m]                                     1.09737315685270E+07
 Avogadro constant [1/mol]                                  6.02214179000000E+23
 Boltzmann constant [J/K]                                   1.38065040000000E-23
 Atomic mass unit [kg]                                      1.66053878200000E-27
 Bohr radius [m]                                            5.29177208590000E-11

 *** Conversion factors ***

 [u] -> [a.u.]                                              1.82288848426455E+03
 [Angstrom] -> [Bohr] = [a.u.]                              1.88972613288564E+00
 [a.u.] = [Bohr] -> [Angstrom]                              5.29177208590000E-01
 [a.u.] -> [s]                                              2.41888432650478E-17
 [a.u.] -> [fs]                                             2.41888432650478E-02
 [a.u.] -> [J]                                              4.35974393937059E-18
 [a.u.] -> [N]                                              8.23872205491840E-08
 [a.u.] -> [K]                                              3.15774647902944E+05
 [a.u.] -> [kJ/mol]                                         2.62549961709828E+03
 [a.u.] -> [kcal/mol]                                       6.27509468713739E+02
 [a.u.] -> [Pa]                                             2.94210107994716E+13
 [a.u.] -> [bar]                                            2.94210107994716E+08
 [a.u.] -> [atm]                                            2.90362800883016E+08
 [a.u.] -> [eV]                                             2.72113838565563E+01
 [a.u.] -> [Hz]                                             6.57968392072181E+15
 [a.u.] -> [1/cm] (wave numbers)                            2.19474631370540E+05
 [a.u./Bohr**2] -> [1/cm]                                   5.14048714338585E+03
 

 CELL_TOP| Volume [angstrom^3]:                                      8000.000000
 CELL_TOP| Vector a [angstrom    20.000     0.000     0.000   |a| =    20.000000
 CELL_TOP| Vector b [angstrom     0.000    20.000     0.000   |b| =    20.000000
 CELL_TOP| Vector c [angstrom     0.000     0.000    20.000   |c| =    20.000000
 CELL_TOP| Angle (b,c), alpha [degree]:                                90.000000
 CELL_TOP| Angle (a,c), beta  [degree]:                                90.000000
 CELL_TOP| Angle (a,b), gamma [degree]:                                90.000000
 CELL_TOP| Numerically orthorhombic:                                         YES
 CELL_TOP| Periodicity                                                      NONE

 GENERATE|  Preliminary Number of Bonds generated:                             0
 GENERATE|  Achieved consistency in connectivity generation.

 CELL| Volume [angstrom^3]:                                          8000.000000
 CELL| Vector a [angstrom]:      20.000     0.000     0.000   |a| =    20.000000
 CELL| Vector b [angstrom]:       0.000    20.000     0.000   |b| =    20.000000
 CELL| Vector c [angstrom]:       0.000     0.000    20.000   |c| =    20.000000
 CELL| Angle (b,c), alpha [degree]:                                    90.000000
 CELL| Angle (a,c), beta  [degree]:                                    90.000000
 CELL| Angle (a,b), gamma [degree]:                                    90.000000
 CELL| Numerically orthorhombic:                                             YES
 CELL| Periodicity                                                          NONE

 CELL_REF| Volume [angstrom^3]:                                      8000.000000
 CELL_REF| Vector a [angstrom    20.000     0.000     0.000   |a| =    20.000000
 CELL_REF| Vector b [angstrom     0.000    20.000     0.000   |b| =    20.000000
 CELL_REF| Vector c [angstrom     0.000     0.000    20.000   |c| =    20.000000
 CELL_REF| Angle (b,c), alpha [degree]:                                90.000000
 CELL_REF| Angle (a,c), beta  [degree]:                                90.000000
 CELL_REF| Angle (a,b), gamma [degree]:                                90.000000
 CELL_REF| Numerically orthorhombic:                                         YES
 CELL_REF| Periodicity                                                      NONE

 *******************************************************************************
 *******************************************************************************
 **                                                                           **
 **     #####                         ##              ##                      **
 **    ##   ##            ##          ##              ##                      **
 **   ##     ##                       ##            ######                    **
 **   ##     ##  ##   ##  ##   #####  ##  ##   ####   ##    #####    #####    **
 **   ##     ##  ##   ##  ##  ##      ## ##   ##      ##   ##   ##  ##   ##   **
 **   ##  ## ##  ##   ##  ##  ##      ####     ###    ##   ######   ######    **
 **    ##  ###   ##   ##  ##  ##      ## ##      ##   ##   ##       ##        **
 **     #######   #####   ##   #####  ##  ##  ####    ##    #####   ##        **
 **           ##                                                    ##        **
 **                                                                           **
 **                                                ... make the atoms dance   **
 **                                                                           **
 **            Copyright (C) by CP2K developers group (2000-2025)             **
 **                      J. Chem. Phys. 152, 194103 (2020)                    **
 **                                                                           **
 *******************************************************************************

 DFT| Spin restricted Kohn-Sham (RKS) calculation                            RKS
 DFT| Multiplicity                                                             1
 DFT| Number of spin states                                                    1
 DFT| Charge                                                                   0
 DFT| Self-interaction correction (SIC)                                       NO
 DFT| Cutoffs: density                                              1.000000E-10
 DFT|          gradient                                             1.000000E-10
 DFT|          tau                                                  1.000000E-10
 DFT|          cutoff_smoothing_range                               0.000000E+00
 DFT| XC density smoothing                                                  NONE
 DFT| XC derivatives                                                          PW

 FUNCTIONAL| PBE:
 FUNCTIONAL| J.P.Perdew, K.Burke, M.Ernzerhof, Phys. Rev. Letter, vol. 77, n 18,
 FUNCTIONAL|  pp. 3865-3868, (1996)sx=0.750sc=1.000{spin unpolarized}           


 QS| Method:                                                                GAPW
 QS| Density plane wave grid type                        NON-SPHERICAL FULLSPACE
 QS| Number of grid levels:                                                    4
 QS| Density cutoff [a.u.]:                                                300.0
 QS| Multi grid cutoff [a.u.]: 1) grid level                               300.0
 QS|                           2) grid level                               100.0
 QS|                           3) grid level                                33.3
 QS|                           4) grid level                                11.1
 QS| Grid level progression factor:                                          3.0
 QS| Relative density cutoff [a.u.]:                                        30.0
 QS| Interaction thresholds: eps_pgf_orb:                                1.0E-05
 QS|                         eps_filter_matrix:                          0.0E+00
 QS|                         eps_core_charge:                            1.0E-12
 QS|                         eps_rho_gspace:                             1.0E-10
 QS|                         eps_rho_rspace:                             1.0E-10
 QS|                         eps_gvg_rspace:                             1.0E-05
 QS|                         eps_ppl:                                    1.0E-02
 QS|                         eps_ppnl:                                   1.0E-07
 QS| GAPW|      One center basis from orbital basis primitives
 QS| GAPW|                   eps_fit:                                    1.0E-04
 QS| GAPW|                   eps_iso:                                    1.0E-12
 QS| GAPW|                   eps_svd:                                    1.0E-08
 QS| GAPW|                   eps_cpc:                                    1.0E-10
 QS| GAPW|   atom-r-grid: quadrature:                                     GC_LOG
 QS| GAPW|      atom-s-grid:  max l :                                          4
 QS| GAPW|      max_l_rho0 :                                                   2


 ATOMIC KIND INFORMATION

  1. Atomic kind: H                                     Number of atoms:       8

     Orbital Basis Set                                               aug-cc-pvdz

       Number of orbital shell sets:                                           4
       Number of orbital shells:                                               5
       Number of primitive Cartesian functions:                                7
       Number of Cartesian basis functions:                                    9
       Number of spherical basis functions:                                    9
       Norm type:                                                              2

       Normalised Cartesian orbitals:

                        Set   Shell   Orbital            Exponent    Coefficient

                          1       1    1s               13.010000       0.096107
                                                         1.962000       0.163020
                                                         0.444600       0.185545
                                                         0.122000       0.073744

                          1       2    2s               13.010000       0.000000
                                                         1.962000       0.000000
                                                         0.444600       0.000000
                                                         0.122000       0.147123

                          2       1    1s                0.029740       0.051041

                          3       1    1px               0.727000       0.956881
                          3       1    1py               0.727000       0.956881
                          3       1    1pz               0.727000       0.956881

                          4       1    1px               0.141000       0.123158
                          4       1    1py               0.141000       0.123158
                          4       1    1pz               0.141000       0.123158

     RI Auxiliary Basis Set                                    aug-cc-pvtz-rifit

       Number of orbital shell sets:                                          14
       Number of orbital shells:                                              14
       Number of primitive Cartesian functions:                               14
       Number of Cartesian basis functions:                                   55
       Number of spherical basis functions:                                   46
       Norm type:                                                              2

       Normalised Cartesian orbitals:

                        Set   Shell   Orbital            Exponent    Coefficient

                          1       1    1s                8.512828       3.551939

                          2       1    1s                1.873089       1.141114

                          3       1    1s                0.526184       0.440315

                          4       1    1s                0.289740       0.281460

                          5       1    1s                0.127194       0.151796

                          6       1    1px               2.372549       4.197195
                          6       1    1py               2.372549       4.197195
                          6       1    1pz               2.372549       4.197195

                          7       1    1px               1.180408       1.753802
                          7       1    1py               1.180408       1.753802
                          7       1    1pz               1.180408       1.753802

                          8       1    1px               0.603822       0.758711
                          8       1    1py               0.603822       0.758711
                          8       1    1pz               0.603822       0.758711

                          9       1    1px               0.235513       0.233861
                          9       1    1py               0.235513       0.233861
                          9       1    1pz               0.235513       0.233861

                         10       1    1dx2              1.809637       4.647235
                         10       1    1dxy              1.809637       8.049248
                         10       1    1dxz              1.809637       8.049248
                         10       1    1dy2              1.809637       4.647235
                         10       1    1dyz              1.809637       8.049248
                         10       1    1dz2              1.809637       4.647235

                         11       1    1dx2              1.143973       2.082748
                         11       1    1dxy              1.143973       3.607426
                         11       1    1dxz              1.143973       3.607426
                         11       1    1dy2              1.143973       2.082748
                         11       1    1dyz              1.143973       3.607426
                         11       1    1dz2              1.143973       2.082748

                         12       1    1dx2              0.436654       0.386056
                         12       1    1dxy              0.436654       0.668668
                         12       1    1dxz              0.436654       0.668668
                         12       1    1dy2              0.436654       0.386056
                         12       1    1dyz              0.436654       0.668668
                         12       1    1dz2              0.436654       0.386056

                         13       1    1fx3              1.806306       5.568458
                         13       1    1fx2y             1.806306      12.451451
                         13       1    1fx2z             1.806306      12.451451
                         13       1    1fxy2             1.806306      12.451451
                         13       1    1fxyz             1.806306      21.566546
                         13       1    1fxz2             1.806306      12.451451
                         13       1    1fy3              1.806306       5.568458
                         13       1    1fy2z             1.806306      12.451451
                         13       1    1fyz2             1.806306      12.451451
                         13       1    1fz3              1.806306       5.568458

                         14       1    1fx3              0.252978       0.066817
                         14       1    1fx2y             0.252978       0.149408
                         14       1    1fx2z             0.252978       0.149408
                         14       1    1fxy2             0.252978       0.149408
                         14       1    1fxyz             0.252978       0.258783
                         14       1    1fxz2             0.252978       0.149408
                         14       1    1fy3              0.252978       0.066817
                         14       1    1fy2z             0.252978       0.149408
                         14       1    1fyz2             0.252978       0.149408
                         14       1    1fz3              0.252978       0.066817

       Atomic covalent radius [Angstrom]:                                  0.320

       Atomic van der Waals radius [Angstrom]:                             1.090

     The atoms of this atomic kind are PAW atoms (GAPW):
       Hard Gaussian function radius:                                      1.200
       Rho0 radius:                                                        1.200
       Maximum GTO radius used for PAW projector construction:            24.566

     GAPW Soft Basis Set                                        aug-cc-pvdz_soft

       Number of orbital shell sets:                                           4
       Number of orbital shells:                                               5
       Number of primitive Cartesian functions:                                6
       Number of Cartesian basis functions:                                    9
       Number of spherical basis functions:                                    9
       Norm type:                                                              2

       Normalised Cartesian orbitals:

                        Set   Shell   Orbital            Exponent    Coefficient

                          1       1    1s                1.962000       0.163020
                                                         0.444600       0.185545
                                                         0.122000       0.073744

                          1       2    2s                1.962000       0.000000
                                                         0.444600       0.000000
                                                         0.122000       0.147123

                          2       1    1s                0.029740       0.051041

                          3       1    1px               0.727000       0.956881
                          3       1    1py               0.727000       0.956881
                          3       1    1pz               0.727000       0.956881

                          4       1    1px               0.141000       0.123158
                          4       1    1py               0.141000       0.123158
                          4       1    1pz               0.141000       0.123158

     AE Potential information for                                            ALL

       Description:                                       All-electron potential
                                          Krack, Parrinello, PCCP 2, 2105 (2000)

       Gaussian exponent of the core charge distribution:              12.500000
       Electronic configuration (s p d ...):                           1   0   0

  2. Atomic kind: C                                     Number of atoms:       6

     Orbital Basis Set                                               aug-cc-pvdz

       Number of orbital shell sets:                                           6
       Number of orbital shells:                                               9
       Number of primitive Cartesian functions:                               17
       Number of Cartesian basis functions:                                   25
       Number of spherical basis functions:                                   23
       Norm type:                                                              2

       Normalised Cartesian orbitals:

                        Set   Shell   Orbital            Exponent    Coefficient

                          1       1    1s             6665.000000       0.363803
                                                      1000.000000       0.675392
                                                       228.000000       1.132301
                                                        64.710000       1.654004
                                                        21.060000       1.924978
                                                         7.495000       1.448149
                                                         2.797000       0.439427
                                                         0.521500       0.006650
                                                         0.159600      -0.000574

                          1       2    2s             6665.000000      -0.076756
                                                      1000.000000      -0.146257
                                                       228.000000      -0.239407
                                                        64.710000      -0.379069
                                                        21.060000      -0.448104
                                                         7.495000      -0.484201
                                                         2.797000      -0.196168
                                                         0.521500       0.238162
                                                         0.159600       0.104468

                          1       3    3s             6665.000000       0.000000
                                                      1000.000000       0.000000
                                                       228.000000       0.000000
                                                        64.710000       0.000000
                                                        21.060000       0.000000
                                                         7.495000       0.000000
                                                         2.797000       0.000000
                                                         0.521500       0.000000
                                                         0.159600       0.179964

                          2       1    1s                0.046900       0.071827

                          3       1    1px               9.439000       0.898722
                                                         2.002000       0.711071
                                                         0.545600       0.339917
                                                         0.151700       0.063270
                          3       1    1py               9.439000       0.898722
                                                         2.002000       0.711071
                                                         0.545600       0.339917
                                                         0.151700       0.063270
                          3       1    1pz               9.439000       0.898722
                                                         2.002000       0.711071
                                                         0.545600       0.339917
                                                         0.151700       0.063270

                          3       2    2px               9.439000       0.000000
                                                         2.002000       0.000000
                                                         0.545600       0.000000
                                                         0.151700       0.134950
                          3       2    2py               9.439000       0.000000
                                                         2.002000       0.000000
                                                         0.545600       0.000000
                                                         0.151700       0.134950
                          3       2    2pz               9.439000       0.000000
                                                         2.002000       0.000000
                                                         0.545600       0.000000
                                                         0.151700       0.134950

                          4       1    1px               0.040410       0.025826
                          4       1    1py               0.040410       0.025826
                          4       1    1pz               0.040410       0.025826

                          5       1    1dx2              0.550000       0.578155
                          5       1    1dxy              0.550000       1.001394
                          5       1    1dxz              0.550000       1.001394
                          5       1    1dy2              0.550000       0.578155
                          5       1    1dyz              0.550000       1.001394
                          5       1    1dz2              0.550000       0.578155

                          6       1    1dx2              0.151000       0.060203
                          6       1    1dxy              0.151000       0.104275
                          6       1    1dxz              0.151000       0.104275
                          6       1    1dy2              0.151000       0.060203
                          6       1    1dyz              0.151000       0.104275
                          6       1    1dz2              0.151000       0.060203

     RI Auxiliary Basis Set                                    aug-cc-pvtz-rifit

       Number of orbital shell sets:                                          28
       Number of orbital shells:                                              28
       Number of primitive Cartesian functions:                               28
       Number of Cartesian basis functions:                                  136
       Number of spherical basis functions:                                  106
       Norm type:                                                              2

       Normalised Cartesian orbitals:

                        Set   Shell   Orbital            Exponent    Coefficient

                          1       1    1s              280.556612      48.856851

                          2       1    1s               60.230247      15.408880

                          3       1    1s               22.116651       7.268581

                          4       1    1s                6.862093       3.021708

                          5       1    1s                1.562255       0.995919

                          6       1    1s                0.912450       0.665376

                          7       1    1s                0.502749       0.425524

                          8       1    1s                0.215823       0.225675

                          9       1    1s                0.101536       0.128196

                         10       1    1px              24.231865      76.634379
                         10       1    1py              24.231865      76.634379
                         10       1    1pz              24.231865      76.634379

                         11       1    1px               6.476451      14.726905
                         11       1    1py               6.476451      14.726905
                         11       1    1pz               6.476451      14.726905

                         12       1    1px               2.129088       3.665914
                         12       1    1py               2.129088       3.665914
                         12       1    1pz               2.129088       3.665914

                         13       1    1px               1.037564       1.492652
                         13       1    1py               1.037564       1.492652
                         13       1    1pz               1.037564       1.492652

                         14       1    1px               0.549413       0.674238
                         14       1    1py               0.549413       0.674238
                         14       1    1pz               0.549413       0.674238

                         15       1    1px               0.281527       0.292307
                         15       1    1py               0.281527       0.292307
                         15       1    1pz               0.281527       0.292307

                         16       1    1px               0.115060       0.095520
                         16       1    1py               0.115060       0.095520
                         16       1    1pz               0.115060       0.095520

                         17       1    1dx2              9.718981      88.053322
                         17       1    1dxy              9.718981     152.512828
                         17       1    1dxz              9.718981     152.512828
                         17       1    1dy2              9.718981      88.053322
                         17       1    1dyz              9.718981     152.512828
                         17       1    1dz2              9.718981      88.053322

                         18       1    1dx2              3.035148      11.487463
                         18       1    1dxy              3.035148      19.896869
                         18       1    1dxz              3.035148      19.896869
                         18       1    1dy2              3.035148      11.487463
                         18       1    1dyz              3.035148      19.896869
                         18       1    1dz2              3.035148      11.487463

                         19       1    1dx2              1.467774       3.221535
                         19       1    1dxy              1.467774       5.579863
                         19       1    1dxz              1.467774       5.579863
                         19       1    1dy2              1.467774       3.221535
                         19       1    1dyz              1.467774       5.579863
                         19       1    1dz2              1.467774       3.221535

                         20       1    1dx2              0.573708       0.622471
                         20       1    1dxy              0.573708       1.078151
                         20       1    1dxz              0.573708       1.078151
                         20       1    1dy2              0.573708       0.622471
                         20       1    1dyz              0.573708       1.078151
                         20       1    1dz2              0.573708       0.622471

                         21       1    1dx2              0.290556       0.189261
                         21       1    1dxy              0.290556       0.327810
                         21       1    1dxz              0.290556       0.327810
                         21       1    1dy2              0.290556       0.189261
                         21       1    1dyz              0.290556       0.327810
                         21       1    1dz2              0.290556       0.189261

                         22       1    1dx2              0.148905       0.058749
                         22       1    1dxy              0.148905       0.101756
                         22       1    1dxz              0.148905       0.101756
                         22       1    1dy2              0.148905       0.058749
                         22       1    1dyz              0.148905       0.101756
                         22       1    1dz2              0.148905       0.058749

                         23       1    1fx3              2.275620       9.363300
                         23       1    1fx2y             2.275620      20.936975
                         23       1    1fx2z             2.275620      20.936975
                         23       1    1fxy2             2.275620      20.936975
                         23       1    1fxyz             2.275620      36.263904
                         23       1    1fxz2             2.275620      20.936975
                         23       1    1fy3              2.275620       9.363300
                         23       1    1fy2z             2.275620      20.936975
                         23       1    1fyz2             2.275620      20.936975
                         23       1    1fz3              2.275620       9.363300

                         24       1    1fx3              1.196890       2.205852
                         24       1    1fx2y             1.196890       4.932435
                         24       1    1fx2z             1.196890       4.932435
                         24       1    1fxy2             1.196890       4.932435
                         24       1    1fxyz             1.196890       8.543228
                         24       1    1fxz2             1.196890       4.932435
                         24       1    1fy3              1.196890       2.205852
                         24       1    1fy2z             1.196890       4.932435
                         24       1    1fyz2             1.196890       4.932435
                         24       1    1fz3              1.196890       2.205852

                         25       1    1fx3              0.541575       0.370413
                         25       1    1fx2y             0.541575       0.828268
                         25       1    1fx2z             0.541575       0.828268
                         25       1    1fxy2             0.541575       0.828268
                         25       1    1fxyz             0.541575       1.434603
                         25       1    1fxz2             0.541575       0.828268
                         25       1    1fy3              0.541575       0.370413
                         25       1    1fy2z             0.541575       0.828268
                         25       1    1fyz2             0.541575       0.828268
                         25       1    1fz3              0.541575       0.370413

                         26       1    1fx3              0.201793       0.040178
                         26       1    1fx2y             0.201793       0.089842
                         26       1    1fx2z             0.201793       0.089842
                         26       1    1fxy2             0.201793       0.089842
                         26       1    1fxyz             0.201793       0.155610
                         26       1    1fxz2             0.201793       0.089842
                         26       1    1fy3              0.201793       0.040178
                         26       1    1fy2z             0.201793       0.089842
                         26       1    1fyz2             0.201793       0.089842
                         26       1    1fz3              0.201793       0.040178

                         27       1    1gx4              1.216610       1.908103
                         27       1    1gx3y             1.216610       5.048367
                         27       1    1gx3z             1.216610       5.048367
                         27       1    1gx2y2            1.216610       6.517414
                         27       1    1gx2yz            1.216610      11.288491
                         27       1    1gx2z2            1.216610       6.517414
                         27       1    1gxy3             1.216610       5.048367
                         27       1    1gxy2z            1.216610      11.288491
                         27       1    1gxyz2            1.216610      11.288491
                         27       1    1gxz3             1.216610       5.048367
                         27       1    1gy4              1.216610       1.908103
                         27       1    1gy3z             1.216610       5.048367
                         27       1    1gy2z2            1.216610       6.517414
                         27       1    1gyz3             1.216610       5.048367
                         27       1    1gz4              1.216610       1.908103

                         28       1    1gx4              0.435998       0.113505
                         28       1    1gx3y             0.435998       0.300307
                         28       1    1gx3z             0.435998       0.300307
                         28       1    1gx2y2            0.435998       0.387695
                         28       1    1gx2yz            0.435998       0.671507
                         28       1    1gx2z2            0.435998       0.387695
                         28       1    1gxy3             0.435998       0.300307
                         28       1    1gxy2z            0.435998       0.671507
                         28       1    1gxyz2            0.435998       0.671507
                         28       1    1gxz3             0.435998       0.300307
                         28       1    1gy4              0.435998       0.113505
                         28       1    1gy3z             0.435998       0.300307
                         28       1    1gy2z2            0.435998       0.387695
                         28       1    1gyz3             0.435998       0.300307
                         28       1    1gz4              0.435998       0.113505

       Atomic covalent radius [Angstrom]:                                  0.770

       Atomic van der Waals radius [Angstrom]:                             1.700

     The atoms of this atomic kind are PAW atoms (GAPW):
       Hard Gaussian function radius:                                      1.512
       Rho0 radius:                                                        1.512
       Maximum GTO radius used for PAW projector construction:            24.566

     GAPW Soft Basis Set                                        aug-cc-pvdz_soft

       Number of orbital shell sets:                                           6
       Number of orbital shells:                                               9
       Number of primitive Cartesian functions:                               10
       Number of Cartesian basis functions:                                   25
       Number of spherical basis functions:                                   23
       Norm type:                                                              2

       Normalised Cartesian orbitals:

                        Set   Shell   Orbital            Exponent    Coefficient

                          1       1    1s                2.797000       0.439427
                                                         0.521500       0.006650
                                                         0.159600      -0.000574

                          1       2    2s                2.797000      -0.196168
                                                         0.521500       0.238162
                                                         0.159600       0.104468

                          1       3    3s                2.797000       0.000000
                                                         0.521500       0.000000
                                                         0.159600       0.179964

                          2       1    1s                0.046900       0.071827

                          3       1    1px               2.002000       0.711071
                                                         0.545600       0.339917
                                                         0.151700       0.063270
                          3       1    1py               2.002000       0.711071
                                                         0.545600       0.339917
                                                         0.151700       0.063270
                          3       1    1pz               2.002000       0.711071
                                                         0.545600       0.339917
                                                         0.151700       0.063270

                          3       2    2px               2.002000       0.000000
                                                         0.545600       0.000000
                                                         0.151700       0.134950
                          3       2    2py               2.002000       0.000000
                                                         0.545600       0.000000
                                                         0.151700       0.134950
                          3       2    2pz               2.002000       0.000000
                                                         0.545600       0.000000
                                                         0.151700       0.134950

                          4       1    1px               0.040410       0.025826
                          4       1    1py               0.040410       0.025826
                          4       1    1pz               0.040410       0.025826

                          5       1    1dx2              0.550000       0.578155
                          5       1    1dxy              0.550000       1.001394
                          5       1    1dxz              0.550000       1.001394
                          5       1    1dy2              0.550000       0.578155
                          5       1    1dyz              0.550000       1.001394
                          5       1    1dz2              0.550000       0.578155

                          6       1    1dx2              0.151000       0.060203
                          6       1    1dxy              0.151000       0.104275
                          6       1    1dxz              0.151000       0.104275
                          6       1    1dy2              0.151000       0.060203
                          6       1    1dyz              0.151000       0.104275
                          6       1    1dz2              0.151000       0.060203

     AE Potential information for                                            ALL

       Description:                                       All-electron potential
                                          Krack, Parrinello, PCCP 2, 2105 (2000)

       Gaussian exponent of the core charge distribution:               4.109048
       Electronic configuration (s p d ...):                           4   2   0


 MOLECULE KIND INFORMATION


 All atoms are their own molecule, skipping detailed information


 TOTAL NUMBERS AND MAXIMUM NUMBERS

  Total number of            - Atomic kinds:                                   2
                             - Atoms:                                         14
                             - Shell sets:                                    68
                             - Shells:                                        94
                             - Primitive Cartesian functions:                158
                             - Cartesian basis functions:                    222
                             - Spherical basis functions:                    210

  Maximum angular momentum of the orbital basis functions:                     2


 MODULE QUICKSTEP: ATOMIC COORDINATES IN ANGSTROM

   Atom Kind Element         X             Y             Z       Z(eff)     Mass
      1    1 H     1      9.046223     11.207691     10.000000   1.0000   1.0079
      2    1 H     1     10.953777      8.792309     10.000000   1.0000   1.0079
      3    1 H     1     12.155816     10.952317     10.000000   1.0000   1.0079
      4    1 H     1      7.844184      9.047683     10.000000   1.0000   1.0079
      5    1 H     1     12.125769     13.402692     10.000000   1.0000   1.0079
      6    1 H     1      7.874231      6.597308     10.000000   1.0000   1.0079
      7    1 H     1     10.275642     13.397162     10.000000   1.0000   1.0079
      8    1 H     1      9.724358      6.602838     10.000000   1.0000   1.0079
      9    2 C     6     10.000000     10.676808     10.000000   6.0000  12.0107
     10    2 C     6     10.000000      9.323192     10.000000   6.0000  12.0107
     11    2 C     6     11.204938     11.485654     10.000000   6.0000  12.0107
     12    2 C     6      8.795062      8.514346     10.000000   6.0000  12.0107
     13    2 C     6     11.203567     12.831663     10.000000   6.0000  12.0107
     14    2 C     6      8.796433      7.168337     10.000000   6.0000  12.0107



 SCF PARAMETERS         Density guess:                                   RESTART
                        --------------------------------------------------------
                        max_scf:                                             200
                        max_scf_history:                                       0
                        max_diis:                                              4
                        --------------------------------------------------------
                        eps_scf:                                        1.00E-09
                        eps_scf_history:                                0.00E+00
                        eps_diis:                                       1.00E-01
                        eps_eigval:                                     1.00E-05
                        --------------------------------------------------------
                        level_shift [a.u.]:                             0.000000
                        added MOs                                       188    0
                        --------------------------------------------------------
                        Mixing method:                            BROYDEN_MIXING
                                                charge density mixing in g-space
                        --------------------------------------------------------
                        No outer SCF

 PW_GRID| Information for grid number                                          1
 PW_GRID| Grid distributed over                                    16 processors
 PW_GRID| Real space group dimensions                                    16    1
 PW_GRID| the grid is blocked:                                                NO
 PW_GRID| Cutoff [a.u.]                                                    300.0
 PW_GRID| spherical cutoff:                                                   NO
 PW_GRID|   Bounds   1           -150     149                Points:         300
 PW_GRID|   Bounds   2           -150     149                Points:         300
 PW_GRID|   Bounds   3           -150     149                Points:         300
 PW_GRID| Volume element (a.u.^3)  0.2000E-02     Volume (a.u.^3)     53986.6767
 PW_GRID| Grid span                                                    FULLSPACE
 PW_GRID|   Distribution                         Average         Max         Min
 PW_GRID|   G-Vectors                          1687500.0     1687500     1687500
 PW_GRID|   G-Rays                                5625.0        5625        5625
 PW_GRID|   Real Space Points                  1687500.0     1710000     1620000

 PW_GRID| Information for grid number                                          2
 PW_GRID| Number of the reference grid                                         1
 PW_GRID| Grid distributed over                                    16 processors
 PW_GRID| Real space group dimensions                                    16    1
 PW_GRID| the grid is blocked:                                                NO
 PW_GRID| Cutoff [a.u.]                                                    100.0
 PW_GRID| spherical cutoff:                                                   NO
 PW_GRID|   Bounds   1            -90      89                Points:         180
 PW_GRID|   Bounds   2            -90      89                Points:         180
 PW_GRID|   Bounds   3            -90      89                Points:         180
 PW_GRID| Volume element (a.u.^3)  0.9257E-02     Volume (a.u.^3)     53986.6767
 PW_GRID| Grid span                                                    FULLSPACE
 PW_GRID|   Distribution                         Average         Max         Min
 PW_GRID|   G-Vectors                           364500.0      364680      364320
 PW_GRID|   G-Rays                                2025.0        2026        2024
 PW_GRID|   Real Space Points                   364500.0      388800      356400

 PW_GRID| Information for grid number                                          3
 PW_GRID| Number of the reference grid                                         1
 PW_GRID| Grid distributed over                                    16 processors
 PW_GRID| Real space group dimensions                                    16    1
 PW_GRID| the grid is blocked:                                                NO
 PW_GRID| Cutoff [a.u.]                                                     33.3
 PW_GRID| spherical cutoff:                                                   NO
 PW_GRID|   Bounds   1            -50      49                Points:         100
 PW_GRID|   Bounds   2            -50      49                Points:         100
 PW_GRID|   Bounds   3            -50      49                Points:         100
 PW_GRID| Volume element (a.u.^3)  0.5399E-01     Volume (a.u.^3)     53986.6767
 PW_GRID| Grid span                                                    FULLSPACE
 PW_GRID|   Distribution                         Average         Max         Min
 PW_GRID|   G-Vectors                            62500.0       62600       62400
 PW_GRID|   G-Rays                                 625.0         626         624
 PW_GRID|   Real Space Points                    62500.0       70000       60000

 PW_GRID| Information for grid number                                          4
 PW_GRID| Number of the reference grid                                         1
 PW_GRID| Grid distributed over                                    16 processors
 PW_GRID| Real space group dimensions                                    16    1
 PW_GRID| the grid is blocked:                                                NO
 PW_GRID| Cutoff [a.u.]                                                     11.1
 PW_GRID| spherical cutoff:                                                   NO
 PW_GRID|   Bounds   1            -30      29                Points:          60
 PW_GRID|   Bounds   2            -30      29                Points:          60
 PW_GRID|   Bounds   3            -30      29                Points:          60
 PW_GRID| Volume element (a.u.^3)  0.2499         Volume (a.u.^3)     53986.6767
 PW_GRID| Grid span                                                    FULLSPACE
 PW_GRID|   Distribution                         Average         Max         Min
 PW_GRID|   G-Vectors                            13500.0       13560       13440
 PW_GRID|   G-Rays                                 225.0         226         224
 PW_GRID|   Real Space Points                    13500.0       14400       10800

 POISSON| Solver                                                         WAVELET
 POISSON| Wavelet| Scaling function                                           40
 POISSON| Periodicity                                                       NONE

 RS_GRID| Information for grid number                                          1
 RS_GRID|   Bounds   1           -150     149                Points:         300
 RS_GRID|   Bounds   2           -150     149                Points:         300
 RS_GRID|   Bounds   3           -150     149                Points:         300
 RS_GRID| Real space distribution over                                  4 groups
 RS_GRID| Real space distribution along direction                              2
 RS_GRID| Border size                                                         24
 RS_GRID| Real space distribution over                                  4 groups
 RS_GRID| Real space distribution along direction                              3
 RS_GRID| Border size                                                         24
 RS_GRID|   Distribution                         Average         Max         Min
 RS_GRID|   Planes                                 123.0         123         123
 RS_GRID|   Distribution                         Average         Max         Min
 RS_GRID|   Planes                                 123.0         123         123

 RS_GRID| Information for grid number                                          2
 RS_GRID|   Bounds   1            -90      89                Points:         180
 RS_GRID|   Bounds   2            -90      89                Points:         180
 RS_GRID|   Bounds   3            -90      89                Points:         180
 RS_GRID| Real space distribution over                                  4 groups
 RS_GRID| Real space distribution along direction                              2
 RS_GRID| Border size                                                         25
 RS_GRID| Real space distribution over                                  4 groups
 RS_GRID| Real space distribution along direction                              3
 RS_GRID| Border size                                                         25
 RS_GRID|   Distribution                         Average         Max         Min
 RS_GRID|   Planes                                  95.0          95          95
 RS_GRID|   Distribution                         Average         Max         Min
 RS_GRID|   Planes                                  95.0          95          95

 RS_GRID| Information for grid number                                          3
 RS_GRID|   Bounds   1            -50      49                Points:         100
 RS_GRID|   Bounds   2            -50      49                Points:         100
 RS_GRID|   Bounds   3            -50      49                Points:         100
 RS_GRID| Real space fully replicated
 RS_GRID| Group size                                                           1

 RS_GRID| Information for grid number                                          4
 RS_GRID|   Bounds   1            -30      29                Points:          60
 RS_GRID|   Bounds   2            -30      29                Points:          60
 RS_GRID|   Bounds   3            -30      29                Points:          60
 RS_GRID| Real space fully replicated
 RS_GRID| Group size                                                           1

  HFX_INFO| Replica ID:                                                        1
  HFX_INFO| FRACTION:                                               0.2500000000
  HFX_INFO| Interaction Potential:                                       COULOMB
  HFX_INFO| EPS_SCHWARZ:                                                 1.0E-10
  HFX_INFO| EPS_SCHWARZ_FORCES                                           1.0E-08
  HFX_INFO| EPS_STORAGE_SCALING:                                         1.0E+00
  HFX_INFO| NBINS:                                                            64
  HFX_INFO| BLOCK_SIZE:                                                        1
  HFX_INFO| Number of periodic shells considered:                           NONE
  HFX_INFO| Number of periodic cells considered:                            NONE


 Number of electrons:                                                         44
 Number of occupied orbitals:                                                 22
 Number of molecular orbitals:                                               210

 Number of orbital functions:                                                210
 Number of independent orbital functions:                                    210

 Extrapolation method: initial_guess

 *** WARNING in qs_initial_guess.F:303 :: User requested to restart the   ***
 *** wavefunction from the file named: Hexatriene-RESTART.wfn. This file  ***
 *** does not exist. Please check the existence of the file or change     ***
 *** properly the value of the keyword WFN_RESTART_FILE_NAME. Calculation ***
 *** continues using ATOMIC GUESS.                                        ***


 Atomic guess: The first density matrix is obtained in terms of atomic orbitals
               and electronic configurations assigned to each atomic kind

 Guess for atomic kind: H

 Electronic structure
    Total number of core electrons                                          0.00
    Total number of valence electrons                                       1.00
    Total number of electrons                                               1.00
    Multiplicity                                                   not specified
    S      1.00


 *******************************************************************************
                  Iteration          Convergence                     Energy [au]
 *******************************************************************************
                          1        0.880988E-02                  -0.444778274653
                          2        0.791349E-03                  -0.444877834394
                          3        0.111042E-03                  -0.444880192149
                          4        0.306660E-07                  -0.444880212296

 Energy components [Hartree]           Total Energy ::           -0.444880212296
                                        Band Energy ::           -0.232361879729
                                     Kinetic Energy ::            0.420568354334
                                   Potential Energy ::           -0.865448566630
                                      Virial (-V/T) ::            2.057807150044
                                        Core Energy ::           -0.495477856147
                                          XC Energy ::           -0.232385335983
                                     Coulomb Energy ::            0.282982979834

 Orbital energies  State     L     Occupation   Energy[a.u.]          Energy[eV]

                       1     0          1.000      -0.232362           -6.322888


 Total Electron Density at R=0:                                         0.221399

 Guess for atomic kind: C

 Electronic structure
    Total number of core electrons                                          0.00
    Total number of valence electrons                                       6.00
    Total number of electrons                                               6.00
    Multiplicity                                                   not specified
    S      2.00  2.00
    P      2.00


 *******************************************************************************
                  Iteration          Convergence                     Energy [au]
 *******************************************************************************
                          1        0.121977                     -37.400018089324
                          2        0.904329E-01                 -37.406032348656
                          3        0.638681E-03                 -37.414959418976
                          4        0.141121E-03                 -37.414959795862
                          5        0.446247E-06                 -37.414959815731

 Energy components [Hartree]           Total Energy ::          -37.414959815731
                                        Band Energy ::          -21.286259476185
                                     Kinetic Energy ::           37.482739917864
                                   Potential Energy ::          -74.897699733595
                                      Virial (-V/T) ::            1.998191698305
                                        Core Energy ::          -50.304318516063
                                          XC Energy ::           -4.741579470163
                                     Coulomb Energy ::           17.630938170495

 Orbital energies  State     L     Occupation   Energy[a.u.]          Energy[eV]

                       1     0          2.000      -9.942952         -270.561481
                       2     0          2.000      -0.501864          -13.656426

                       1     1          2.000      -0.198313           -5.396382


 Total Electron Density at R=0:                                       121.940282
 Re-scaling the density matrix to get the right number of electrons
                  # Electrons              Trace(P)               Scaling factor
                           44                44.000                        1.000


 SCF WAVEFUNCTION OPTIMIZATION

  Step     Update method      Time    Convergence         Total energy    Change
  ------------------------------------------------------------------------------

  HFX_MEM_INFO| Est. max. program size before HFX [MiB]:                    1242
  HFX_MEM_INFO| Number of cart. primitive ERI's calculated:           1054613574
  HFX_MEM_INFO| Number of sph. ERI's calculated:                       285643988
  HFX_MEM_INFO| Number of sph. ERI's stored in-core:                   285643988
  HFX_MEM_INFO| Number of sph. ERI's stored on disk:                           0
  HFX_MEM_INFO| Number of sph. ERI's calculated on the fly:                    0
  HFX_MEM_INFO| Total memory consumption ERI's RAM [MiB]:                    764
  HFX_MEM_INFO| Whereof max-vals [MiB]:                                        1
  HFX_MEM_INFO| Total compression factor ERI's RAM:                         2.86
  HFX_MEM_INFO| Total memory consumption ERI's disk [MiB]:                     0
  HFX_MEM_INFO| Total compression factor ERI's disk:                        0.00
  HFX_MEM_INFO| Size of density/Fock matrix [MiB]:                             0
  HFX_MEM_INFO| Size of buffers [MiB]:                                         0
  HFX_MEM_INFO| Est. max. program size after HFX  [MiB]:                    1523

     1 NoMix/Diag. 0.40E+00    6.6     3.29352102      -234.3642089916 -2.34E+02
     2 Broy./Diag. 0.40E+00    3.1     0.52409175      -229.6219730287  4.74E+00
     3 Broy./Diag. 0.40E+00    3.2     1.00911523      -232.2373082455 -2.62E+00
     4 Broy./Diag. 0.40E+00    3.2     0.24456048      -233.0669849136 -8.30E-01
     5 Broy./Diag. 0.40E+00    3.3     0.10776615      -232.8736977849  1.93E-01
     6 Broy./Diag. 0.40E+00    3.3     0.05678387      -233.0956873711 -2.22E-01
     7 Broy./Diag. 0.40E+00    3.3     0.03600913      -233.1142178442 -1.85E-02
     8 Broy./Diag. 0.40E+00    3.3     0.01327713      -233.0923903095  2.18E-02
     9 Broy./Diag. 0.40E+00    3.4     0.02473759      -233.1193292431 -2.69E-02
    10 Broy./Diag. 0.40E+00    3.3     0.03473141      -233.1242655845 -4.94E-03
    11 Broy./Diag. 0.40E+00    3.3     0.00238639      -233.1272401838 -2.97E-03
    12 Broy./Diag. 0.40E+00    3.4     0.00827680      -233.1311283245 -3.89E-03
    13 Broy./Diag. 0.40E+00    3.3     0.00462272      -233.1297696533  1.36E-03
    14 Broy./Diag. 0.40E+00    3.3     0.01185925      -233.1296144796  1.55E-04
    15 Broy./Diag. 0.40E+00    3.3     0.00838479      -233.1287503815  8.64E-04
    16 Broy./Diag. 0.40E+00    3.3     0.00189870      -233.1285348690  2.16E-04
    17 Broy./Diag. 0.40E+00    3.3     0.00115235      -233.1294049915 -8.70E-04
    18 Broy./Diag. 0.40E+00    3.3     0.00132186      -233.1293947118  1.03E-05
    19 Broy./Diag. 0.40E+00    3.3     0.00377048      -233.1293228602  7.19E-05
    20 Broy./Diag. 0.40E+00    3.3     0.00201826      -233.1296586867 -3.36E-04
    21 Broy./Diag. 0.40E+00    3.3     0.00112304      -233.1294014318  2.57E-04
    22 Broy./Diag. 0.40E+00    3.3     0.00229757      -233.1293455814  5.59E-05
    23 Broy./Diag. 0.40E+00    3.3     0.00089848      -233.1295016140 -1.56E-04
    24 Broy./Diag. 0.40E+00    3.3     0.00067748      -233.1293733620  1.28E-04
    25 Broy./Diag. 0.40E+00    3.3     0.00055721      -233.1293251589  4.82E-05
    26 Broy./Diag. 0.40E+00    3.3     0.00028717      -233.1293693940 -4.42E-05
    27 Broy./Diag. 0.40E+00    3.3     0.00020662      -233.1293044972  6.49E-05
    28 Broy./Diag. 0.40E+00    3.3     0.00017771      -233.1292778128  2.67E-05
    29 Broy./Diag. 0.40E+00    3.3     0.00011313      -233.1293013010 -2.35E-05
    30 Broy./Diag. 0.40E+00    3.3     0.00010997      -233.1292881360  1.32E-05
    31 Broy./Diag. 0.40E+00    3.3     0.00011783      -233.1292804561  7.68E-06
    32 Broy./Diag. 0.40E+00    3.3     0.00010969      -233.1292896362 -9.18E-06
    33 Broy./Diag. 0.40E+00    3.3     0.00011994      -233.1292885918  1.04E-06
    34 Broy./Diag. 0.40E+00    3.3     0.00013907      -233.1292867721  1.82E-06
    35 Broy./Diag. 0.40E+00    3.3     0.00002107      -233.1292891006 -2.33E-06
    36 Broy./Diag. 0.40E+00    3.3     0.00007444      -233.1292883300  7.71E-07
    37 Broy./Diag. 0.40E+00    3.3     0.00000473      -233.1292880976  2.32E-07
    38 Broy./Diag. 0.40E+00    3.3     0.00001488      -233.1292894530 -1.36E-06
    39 Broy./Diag. 0.40E+00    3.3     0.00001551      -233.1292888898  5.63E-07
    40 Broy./Diag. 0.40E+00    3.3     0.00000652      -233.1292882293  6.60E-07
    41 Broy./Diag. 0.40E+00    3.3     0.00000256      -233.1292885435 -3.14E-07
    42 Broy./Diag. 0.40E+00    3.3     0.00000416      -233.1292885459 -2.37E-09
    43 Broy./Diag. 0.40E+00    3.3     0.00000185      -233.1292882258  3.20E-07
    44 Broy./Diag. 0.40E+00    3.3     0.00000135      -233.1292883451 -1.19E-07
    45 Broy./Diag. 0.40E+00    3.4     0.00000108      -233.1292883694 -2.43E-08
    46 Broy./Diag. 0.40E+00    3.3     0.00000043      -233.1292882825  8.69E-08
    47 Broy./Diag. 0.40E+00    3.3     0.00000022      -233.1292883606 -7.81E-08
    48 Broy./Diag. 0.40E+00    3.3     0.00000042      -233.1292883391  2.16E-08
    49 Broy./Diag. 0.40E+00    3.3     0.00000014      -233.1292883005  3.86E-08
    50 Broy./Diag. 0.40E+00    3.3     0.00000045      -233.1292883283 -2.78E-08
    51 Broy./Diag. 0.40E+00    3.3     0.00000099      -233.1292883398 -1.15E-08
    52 Broy./Diag. 0.40E+00    3.3     0.00000078      -233.1292883384  1.35E-09
    53 Broy./Diag. 0.40E+00    3.3     0.00000045      -233.1292883478 -9.36E-09
    54 Broy./Diag. 0.40E+00    3.3     0.00000017      -233.1292883501 -2.34E-09
    55 Broy./Diag. 0.40E+00    3.3     0.00000004      -233.1292883449  5.20E-09
    56 Broy./Diag. 0.40E+00    3.3     0.00000007      -233.1292883409  4.04E-09
    57 Broy./Diag. 0.40E+00    3.3     0.00000012      -233.1292883412 -2.84E-10
    58 Broy./Diag. 0.40E+00    3.3     0.00000003      -233.1292883417 -5.56E-10
    59 Broy./Diag. 0.40E+00    3.3     0.00000003      -233.1292883407  1.00E-09
    60 Broy./Diag. 0.40E+00    3.3     0.00000001      -233.1292883392  1.50E-09
    61 Broy./Diag. 0.40E+00    3.3     0.00000001      -233.1292883385  7.18E-10
    62 Broy./Diag. 0.40E+00    3.3     0.00000002      -233.1292883385 -1.38E-11
    63 Broy./Diag. 0.40E+00    3.3     5.5287E-09      -233.1292883387 -2.14E-10
    64 Broy./Diag. 0.40E+00    3.3     3.5665E-09      -233.1292883388 -5.76E-11
    65 Broy./Diag. 0.40E+00    3.3     1.8212E-09      -233.1292883386  1.63E-10
    66 Broy./Diag. 0.40E+00    3.3     1.4863E-09      -233.1292883386  3.07E-11
    67 Broy./Diag. 0.40E+00    3.4     2.3697E-09      -233.1292883387 -1.12E-10
    68 Broy./Diag. 0.40E+00    3.3     1.5853E-09      -233.1292883387  4.80E-11
    69 Broy./Diag. 0.40E+00    3.3     3.5210E-09      -233.1292883385  1.60E-10
    70 Broy./Diag. 0.40E+00    3.3     1.2262E-09      -233.1292883385  5.03E-11
    71 Broy./Diag. 0.40E+00    3.3     1.3080E-09      -233.1292883385  2.02E-12
    72 Broy./Diag. 0.40E+00    3.3     3.1402E-09      -233.1292883385 -3.83E-11
    73 Broy./Diag. 0.40E+00    3.3     3.7822E-09      -233.1292883385 -4.77E-11
    74 Broy./Diag. 0.40E+00    3.3     1.9539E-09      -233.1292883385  4.86E-12
    75 Broy./Diag. 0.40E+00    3.3     1.9143E-09      -233.1292883385  2.55E-11
    76 Broy./Diag. 0.40E+00    3.3     5.7163E-09      -233.1292883385  8.19E-12
    77 Broy./Diag. 0.40E+00    3.3     3.3802E-09      -233.1292883385 -3.24E-12
    78 Broy./Diag. 0.40E+00    3.3     1.0269E-09      -233.1292883385 -8.87E-12
    79 Broy./Diag. 0.40E+00    3.3     1.0890E-09      -233.1292883385 -3.52E-12
    80 Broy./Diag. 0.40E+00    3.3     2.2374E-09      -233.1292883385  2.84E-13
    81 Broy./Diag. 0.40E+00    3.3     4.1310E-09      -233.1292883385  4.69E-12
    82 Broy./Diag. 0.40E+00    3.2     4.0950E-09      -233.1292883385  2.07E-12
    83 Broy./Diag. 0.40E+00    3.2     1.0884E-09      -233.1292883385 -1.71E-13
    84 Broy./Diag. 0.40E+00    3.3     1.3078E-09      -233.1292883385  1.99E-12
    85 Broy./Diag. 0.40E+00    3.2     2.3535E-09      -233.1292883385 -1.93E-12
    86 Broy./Diag. 0.40E+00    3.2     2.1617E-09      -233.1292883385  0.00E+00
    87 Broy./Diag. 0.40E+00    3.3     1.4367E-09      -233.1292883385  3.07E-12
    88 Broy./Diag. 0.40E+00    3.3     2.4425E-09      -233.1292883385 -2.81E-12
    89 Broy./Diag. 0.40E+00    3.2     1.2178E-09      -233.1292883385 -3.69E-13
    90 Broy./Diag. 0.40E+00    3.3     1.6606E-09      -233.1292883385  4.18E-12
    91 Broy./Diag. 0.40E+00    3.2     5.0725E-09      -233.1292883385 -4.63E-12
    92 Broy./Diag. 0.40E+00    3.2     2.6939E-09      -233.1292883385  3.13E-13
    93 Broy./Diag. 0.40E+00    3.3     1.6018E-09      -233.1292883385  1.79E-12
    94 Broy./Diag. 0.40E+00    3.3     2.1186E-09      -233.1292883385 -1.25E-12
    95 Broy./Diag. 0.40E+00    3.2     1.6200E-09      -233.1292883385  8.53E-14
    96 Broy./Diag. 0.40E+00    3.3     2.3775E-09      -233.1292883385  7.96E-13
    97 Broy./Diag. 0.40E+00    3.2     2.3409E-09      -233.1292883385 -1.28E-12
    98 Broy./Diag. 0.40E+00    3.2     2.7277E-09      -233.1292883385 -2.84E-14
    99 Broy./Diag. 0.40E+00    3.3     3.2366E-09      -233.1292883385  5.68E-14
   100 Broy./Diag. 0.40E+00    3.2     1.7391E-09      -233.1292883385  2.27E-13
   101 Broy./Diag. 0.40E+00    3.3     1.9128E-09      -233.1292883385 -2.76E-12
   102 Broy./Diag. 0.40E+00    3.3     1.8050E-09      -233.1292883385  2.39E-12
   103 Broy./Diag. 0.40E+00    3.3     2.3512E-09      -233.1292883385  5.97E-13
   104 Broy./Diag. 0.40E+00    3.2     4.1169E-09      -233.1292883385 -6.25E-13
   105 Broy./Diag. 0.40E+00    3.3     4.8504E-09      -233.1292883385  8.24E-13
   106 Broy./Diag. 0.40E+00    3.2     4.5726E-09      -233.1292883385 -7.39E-13
   107 Broy./Diag. 0.40E+00    3.3     3.6396E-09      -233.1292883385  3.07E-12
   108 Broy./Diag. 0.40E+00    3.2     5.3568E-09      -233.1292883385 -2.64E-12
   109 Broy./Diag. 0.40E+00    3.3     5.2622E-09      -233.1292883385  1.68E-12
   110 Broy./Diag. 0.40E+00    3.2     9.6981E-10      -233.1292883385 -2.13E-12

  *** SCF run converged in   110 steps ***


  Electronic density on regular grids:        -32.7837385991       11.2162614009
  Core density on regular grids:               44.0000000000       -0.0000000000
  Hard and soft densities (Lebedev):         -292.6992984149     -281.4830365341
  Total Rho_soft + Rho1_hard - Rho1_soft      -44.0000004799
  Total charge density (r-space):              -0.0000004799
  Total Rho_soft + Rho0_soft (g-space):        -0.0000005475

  Overlap energy of the core charge distribution:               0.00001824423737
  Self energy of the core charge distribution:               -185.96027138526242
  Core Hamiltonian energy:                                    -40.17104494332443
  Hartree energy:                                              75.92835531164268
  Exchange-correlation energy:                                -10.61149158467142
  Hartree-Fock Exchange energy:                                -8.45940938816044

  GAPW| Exc from hard and soft atomic rho1:                   -16.08617731586095
  GAPW| local Eh = 1 center integrals:                        -47.76926727711365

  Total energy:                                              -233.12928833851325

 !-----------------------------------------------------------------------------!
                     Mulliken Population Analysis

 #  Atom  Element  Kind  Atomic population                           Net charge
       1     H        1          1.731859                             -0.731859
       2     H        1          1.731859                             -0.731859
       3     H        1          1.720621                             -0.720621
       4     H        1          1.720621                             -0.720621
       5     H        1          1.464783                             -0.464783
       6     H        1          1.464783                             -0.464783
       7     H        1          1.496123                             -0.496123
       8     H        1          1.496123                             -0.496123
       9     C        2          4.878439                              1.121561
      10     C        2          4.878439                              1.121561
      11     C        2          5.001240                              0.998760
      12     C        2          5.001240                              0.998760
      13     C        2          5.706933                              0.293067
      14     C        2          5.706933                              0.293067
 # Total charge                             44.000000                 -0.000000

 !-----------------------------------------------------------------------------!

 !-----------------------------------------------------------------------------!
                           Hirshfeld Charges

  #Atom  Element  Kind  Ref Charge     Population                    Net charge
      1       H      1       1.000          0.510                         0.490
      2       H      1       1.000          0.510                         0.490
      3       H      1       1.000          0.510                         0.490
      4       H      1       1.000          0.510                         0.490
      5       H      1       1.000          0.506                         0.494
      6       H      1       1.000          0.506                         0.494
      7       H      1       1.000          0.507                         0.493
      8       H      1       1.000          0.507                         0.493
      9       C      2       6.000          6.480                        -0.480
     10       C      2       6.000          6.480                        -0.480
     11       C      2       6.000          6.473                        -0.473
     12       C      2       6.000          6.473                        -0.473
     13       C      2       6.000          6.990                        -0.990
     14       C      2       6.000          6.990                        -0.990

  Total Charge                                                            0.047
 !-----------------------------------------------------------------------------!
  
 -------------------------------------------------------------------------------
 -                                                                             -
 -                          BANDSTRUCTURE CALCULATION                          -
 -                                                                             -
 -------------------------------------------------------------------------------
  
 Number of occupied molecular orbitals (MOs) = Number of occupied bands       22
 Number of unoccupied (= virtual) MOs = Number of unoccupied bands           188
 Number of Gaussian basis functions for MOs                                  210
 K-point mesh for the density of states (DOS) and the self-energy      1   1   1
  
 -------------------------------------------------------------------------------
 -                                                                             -
 -                              GW CALCULATION                                 -
 -                                                                             -
 -------------------------------------------------------------------------------
  
 Input: Number of time/freq. points                                           30
 Input: Filter threshold for sparse tensor operations                    1.0E-08
 Apply Hedin shift                                                             F
  
 Number of auxiliary Gaussian basis functions for , , W                   1004
 Cutoff radius for the truncated Coulomb operator in ^x:               2645.9 
 Cutoff radius for the truncated Coulomb operator in RI metric:            3.0 
 Regularization parameter of RI                                          0.0E+00
 Lattice sum size for V(k):                                                    3
  
 K-point mesh 1 for , , W                                            1   1   1
 K-point mesh 2 for , , W (for k-point extrapolation of W)           1   1   1
 Approximate the k-point extrapolation                                         F
 Group size for tensor operations                                             16
 
 Computed 3-center integrals (|P), execution time                        1.3 s
 Percentage of non-zero (|P)                                         100.000 %
 Max. distance between , in non-zero (|P)                              8.0 A
 Required memory if storing all 3-center integrals (|P)                   0 GB
 
 Number of i and j atoms in M_P(), N_Q():                               15
 Number of inner loop atoms for  in M_P = sum_ (|P) G_                14
 
 SCF direct band gap (eV)                                                   4.74
 Max. SCF eigval diff. (eV)                                            272392.67
 E-Range for minimax grid                                               57480.15
 Number of Pad parameters for analytic continuation:                          7
 
 Computed (i,k=0) for time point            1 / 30,    Execution time    1.9 s
 Computed (i,k=0) for time point            2 / 30,    Execution time    1.2 s
 Computed (i,k=0) for time point            3 / 30,    Execution time    1.2 s
 Computed (i,k=0) for time point            4 / 30,    Execution time    1.2 s
 Computed (i,k=0) for time point            5 / 30,    Execution time    1.2 s
 Computed (i,k=0) for time point            6 / 30,    Execution time    1.2 s
 Computed (i,k=0) for time point            7 / 30,    Execution time    1.2 s
 Computed (i,k=0) for time point            8 / 30,    Execution time    1.2 s
 Computed (i,k=0) for time point            9 / 30,    Execution time    1.2 s
 Computed (i,k=0) for time point           10 / 30,    Execution time    1.2 s
 Computed (i,k=0) for time point           11 / 30,    Execution time    1.2 s
 Computed (i,k=0) for time point           12 / 30,    Execution time    1.2 s
 Computed (i,k=0) for time point           13 / 30,    Execution time    1.2 s
 Computed (i,k=0) for time point           14 / 30,    Execution time    1.2 s
 Computed (i,k=0) for time point           15 / 30,    Execution time    1.2 s
 Computed (i,k=0) for time point           16 / 30,    Execution time    1.2 s
 Computed (i,k=0) for time point           17 / 30,    Execution time    1.2 s
 Computed (i,k=0) for time point           18 / 30,    Execution time    1.2 s
 Computed (i,k=0) for time point           19 / 30,    Execution time    1.2 s
 Computed (i,k=0) for time point           20 / 30,    Execution time    1.2 s
 Computed (i,k=0) for time point           21 / 30,    Execution time    1.2 s
 Computed (i,k=0) for time point           22 / 30,    Execution time    1.2 s
 Computed (i,k=0) for time point           23 / 30,    Execution time    1.2 s
 Computed (i,k=0) for time point           24 / 30,    Execution time    1.2 s
 Computed (i,k=0) for time point           25 / 30,    Execution time    1.2 s
 Computed (i,k=0) for time point           26 / 30,    Execution time    1.2 s
 Computed (i,k=0) for time point           27 / 30,    Execution time    1.2 s
 Computed (i,k=0) for time point           28 / 30,    Execution time    1.2 s
 Computed (i,k=0) for time point           29 / 30,    Execution time    1.2 s
 Computed (i,k=0) for time point           30 / 30,    Execution time    1.2 s
 
 Computed W(i,k) for k-point batch           1 /  1,    Execution time    8.7 s
 
 Computed ^x(k=0),                                      Execution time    1.4 s
 
 Computed ^c(i,k=0) for time point          1 / 30,    Execution time    1.8 s
 Computed ^c(i,k=0) for time point          2 / 30,    Execution time    1.8 s
 Computed ^c(i,k=0) for time point          3 / 30,    Execution time    1.8 s
 Computed ^c(i,k=0) for time point          4 / 30,    Execution time    1.8 s
 Computed ^c(i,k=0) for time point          5 / 30,    Execution time    1.8 s
 Computed ^c(i,k=0) for time point          6 / 30,    Execution time    1.8 s
 Computed ^c(i,k=0) for time point          7 / 30,    Execution time    1.8 s
 Computed ^c(i,k=0) for time point          8 / 30,    Execution time    1.8 s
 Computed ^c(i,k=0) for time point          9 / 30,    Execution time    1.8 s
 Computed ^c(i,k=0) for time point         10 / 30,    Execution time    1.8 s
 Computed ^c(i,k=0) for time point         11 / 30,    Execution time    1.8 s
 Computed ^c(i,k=0) for time point         12 / 30,    Execution time    1.8 s
 Computed ^c(i,k=0) for time point         13 / 30,    Execution time    1.8 s
 Computed ^c(i,k=0) for time point         14 / 30,    Execution time    1.8 s
 Computed ^c(i,k=0) for time point         15 / 30,    Execution time    1.8 s
 Computed ^c(i,k=0) for time point         16 / 30,    Execution time    1.8 s
 Computed ^c(i,k=0) for time point         17 / 30,    Execution time    1.8 s
 Computed ^c(i,k=0) for time point         18 / 30,    Execution time    1.8 s
 Computed ^c(i,k=0) for time point         19 / 30,    Execution time    1.8 s
 Computed ^c(i,k=0) for time point         20 / 30,    Execution time    1.8 s
 Computed ^c(i,k=0) for time point         21 / 30,    Execution time    1.8 s
 Computed ^c(i,k=0) for time point         22 / 30,    Execution time    1.8 s
 Computed ^c(i,k=0) for time point         23 / 30,    Execution time    1.8 s
 Computed ^c(i,k=0) for time point         24 / 30,    Execution time    1.8 s
 Computed ^c(i,k=0) for time point         25 / 30,    Execution time    1.8 s
 Computed ^c(i,k=0) for time point         26 / 30,    Execution time    1.8 s
 Computed ^c(i,k=0) for time point         27 / 30,    Execution time    1.8 s
 Computed ^c(i,k=0) for time point         28 / 30,    Execution time    1.8 s
 Computed ^c(i,k=0) for time point         29 / 30,    Execution time    1.8 s
 Computed ^c(i,k=0) for time point         30 / 30,    Execution time    1.8 s
 
 Sparsity of ^c(i,k=0): Percentage of skipped atom pairs:                0.0 %
 Retaining nl_3c for RTBSE

 
 SCF valence band maximum (eV):                                           -6.227
 SCF conduction band minimum (eV):                                        -1.488
 SCF indirect band gap (eV):                                               4.739
 SCF direct band gap (eV):                                                 4.739
 
 G0W0 valence band maximum (eV):                                          -7.687
 G0W0 conduction band minimum (eV):                                        0.558
 G0W0 indirect band gap (eV):                                              8.245
 G0W0 direct band gap (eV):                                                8.245
 
 Hartree-Fock with SCF orbitals valence band maximum (eV):                -7.529
 Hartree-Fock with SCF orbitals conduction band minimum (eV)               1.283
 Hartree-Fock with SCF orbitals indirect band gap (eV):                    8.812
 Hartree-Fock with SCF orbitals direct band gap (eV):                      8.812

 ENERGY| Total FORCE_EVAL ( QS ) energy [hartree]           -233.129288338513248
 RTBSE| Approximate size of the 3c integrals                       0.34E+003 MiB
 
 /-----------------------------------------------------------------------------\
 |                                                                             |
 |                    Real Time Bethe-Salpeter Propagation                     |
 |                                                                             |
 \-----------------------------------------------------------------------------/
 
 Exponential method                                                          BCH
 Reference Hamiltonian                                                      G0W0
 Apply delta pulse                                                             T
 Use adaptive timestep                                                         F
 Use eigenstate removal                                                        F


 *** WARNING in emd/rt_bse_io.F:488 :: Restart required but no info file ***
 *** found - starting from sim_step given in input                       ***


 *** WARNING in emd/rt_bse_io.F:514 :: Restart without some restart ***
 *** matrices - starting from SCF density.                          ***


 *** WARNING in emd/rt_bse_io.F:567 :: Restart without previous moments - ***
 *** unknown moments trace set to zero.                                   ***

 RTBSE| Applying delta pulse
 RTBSE| Delta pulse elements (a.u.) :   -0.1000E-003  -0.0000E+000  -0.0000E+000
 RTBSE| Metric difference after delta kick                       0.25369847E-003
 RTBSE| Simulation step         Convergence     Electron number  ETRS Iterations
 RTBSE|               0     0.32618733E-007     0.44000000E+002               51

 *******************************************************************************
 *   ___                                                                       *
 *  /   \                                                                      *
 * [ABORT]                                                                     *
 *  \___/                          ETRS did not converge                       *
 *    |                                                                        *
 *  O/|                                                                        *
 * /| |                                                                        *
 * / \                                                        emd/rt_bse.F:283 *
 *******************************************************************************


 ===== Routine Calling Stack ===== 

            2 run_propagation_bse
            1 CP2K
