 DBCSR| CPU Multiplication driver                                           XSMM (U)
 DBCSR| Multrec recursion limit                                              512 (U)
 DBCSR| Multiplication stack size                                           1000 (D)
 DBCSR| Maximum elements for images                                    UNLIMITED (U)
 DBCSR| Multiplicative factor virtual images                                   1 (U)
 DBCSR| Use multiplication densification                                       T (D)
 DBCSR| Multiplication size stacks                                             3 (U)
 DBCSR| Use memory pool for CPU allocation                                     F (U)
 DBCSR| Number of 3D layers                                               SINGLE (U)
 DBCSR| Use MPI memory allocation                                              F (U)
 DBCSR| Use RMA algorithm                                                      F (U)
 DBCSR| Use Communication thread                                               T (U)
 DBCSR| Communication thread load                                             79 (D)
 DBCSR| MPI: My process id                                                     0
 DBCSR| MPI: Number of processes                                              16
 DBCSR| OMP: Current number of threads                                         3
 DBCSR| OMP: Max number of threads                                             3
 DBCSR| Split modifier for TAS multiplication algorithm                  1.0E+00 (U)


  **** **** ******  **  PROGRAM STARTED AT               2024-12-02 15:53:49.300
 ***** ** ***  *** **   PROGRAM STARTED ON                          i01r03c01s08
 **    ****   ******    PROGRAM STARTED BY                               di75qec
 ***** **    ** ** **   PROGRAM PROCESS ID                                132818
  **** **  *******  **  PROGRAM STARTED IN /hppfs/scratch/09/di75qec/Benzene_scf
                                           .4142570

 CP2K| version string:                 CP2K version 2024.3 (Development Version)
 CP2K| source code revision number:                                  git:29c2adf
 CP2K| cp2kflags: omp libint fftw3 libxc parallel scalapack xsmm max_contr=4    
 CP2K| is freely available from                            https://www.cp2k.org/
 CP2K| Program compiled at                       Thu 21 Nov 2024 04:40:02 PM CET
 CP2K| Program compiled on                                               login03
 CP2K| Program compiled for                                        Supermuc-foss
 CP2K| Data directory path               /dss/dsshome1/09/di75qec/CP2K-foss/data
 CP2K| Input file name                                                   scf.inp

 GLOBAL| Force Environment number                                              1
 GLOBAL| Basis set file name                                         aug-cc-pvdz
 GLOBAL| Potential file name                                      ALL_POTENTIALS
 GLOBAL| MM Potential file name                                     MM_POTENTIAL
 GLOBAL| Coordinate file name                                          coord.xyz
 GLOBAL| Method name                                                        CP2K
 GLOBAL| Project name                                                    Benzene
 GLOBAL| Run type                                                 RT_PROPAGATION
 GLOBAL| FFT library                                                       FFTW3
 GLOBAL| Diagonalization library                                       ScaLAPACK
 GLOBAL| DGEMM library                                                      BLAS
 GLOBAL| Orthonormality check for eigenvectors                          DISABLED
 GLOBAL| Matrix multiplication library                                 ScaLAPACK
 GLOBAL| All-to-all communication in single precision                          F
 GLOBAL| FFTs using library dependent lengths                                  F
 GLOBAL| Grid backend                                                       AUTO
 GLOBAL| Global print level                                               MEDIUM
 GLOBAL| MPI I/O enabled                                                       T
 GLOBAL| Total number of message passing processes                            16
 GLOBAL| Number of threads for this process                                    3
 GLOBAL| This output is from process                                           0
 GLOBAL| Stack size for threads created by OpenMP (OMP_STACKSIZE)        default
 GLOBAL| CPU model name             Intel(R) Xeon(R) Platinum 8174 CPU @ 3.10GHz
 GLOBAL| CPUID                                                              1003
 GLOBAL| Compiled for CPUID                                                    0

 *** HINT in environment.F:921 :: The compiler target flags (generic) used ***
 *** to build this binary cannot exploit all extensions of this CPU model  ***
 *** (x86_avx512). Consider compiler target flags as part of FCFLAGS and   ***
 *** CFLAGS (ARCH file).                                                   ***


 MEMORY| system memory details [Kb]
 MEMORY|                        rank 0           min           max       average
 MEMORY| MemTotal             98436660      98436660      98436660      98436660
 MEMORY| MemFree              84152104      84152104      84152104      84152104
 MEMORY| Buffers                     0             0             0             0
 MEMORY| Cached                2364128       2364124       2364128       2364124
 MEMORY| Slab                  1127344       1127344       1127344       1127344
 MEMORY| SReclaimable           253252        253252        253252        253252
 MEMORY| MemLikelyFree        86769484      86769480      86769484      86769480


 *** Fundamental physical constants (SI units) ***

 *** Literature: B. J. Mohr and B. N. Taylor,
 ***             CODATA recommended values of the fundamental physical
 ***             constants: 2006, Web Version 5.1
 ***             http://physics.nist.gov/constants

 Speed of light in vacuum [m/s]                             2.99792458000000E+08
 Magnetic constant or permeability of vacuum [N/A**2]       1.25663706143592E-06
 Electric constant or permittivity of vacuum [F/m]          8.85418781762039E-12
 Planck constant (h) [J*s]                                  6.62606896000000E-34
 Planck constant (h-bar) [J*s]                              1.05457162825177E-34
 Elementary charge [C]                                      1.60217648700000E-19
 Electron mass [kg]                                         9.10938215000000E-31
 Electron g factor [ ]                                     -2.00231930436220E+00
 Proton mass [kg]                                           1.67262163700000E-27
 Fine-structure constant                                    7.29735253760000E-03
 Rydberg constant [1/m]                                     1.09737315685270E+07
 Avogadro constant [1/mol]                                  6.02214179000000E+23
 Boltzmann constant [J/K]                                   1.38065040000000E-23
 Atomic mass unit [kg]                                      1.66053878200000E-27
 Bohr radius [m]                                            5.29177208590000E-11

 *** Conversion factors ***

 [u] -> [a.u.]                                              1.82288848426455E+03
 [Angstrom] -> [Bohr] = [a.u.]                              1.88972613288564E+00
 [a.u.] = [Bohr] -> [Angstrom]                              5.29177208590000E-01
 [a.u.] -> [s]                                              2.41888432650478E-17
 [a.u.] -> [fs]                                             2.41888432650478E-02
 [a.u.] -> [J]                                              4.35974393937059E-18
 [a.u.] -> [N]                                              8.23872205491840E-08
 [a.u.] -> [K]                                              3.15774647902944E+05
 [a.u.] -> [kJ/mol]                                         2.62549961709828E+03
 [a.u.] -> [kcal/mol]                                       6.27509468713739E+02
 [a.u.] -> [Pa]                                             2.94210107994716E+13
 [a.u.] -> [bar]                                            2.94210107994716E+08
 [a.u.] -> [atm]                                            2.90362800883016E+08
 [a.u.] -> [eV]                                             2.72113838565563E+01
 [a.u.] -> [Hz]                                             6.57968392072181E+15
 [a.u.] -> [1/cm] (wave numbers)                            2.19474631370540E+05
 [a.u./Bohr**2] -> [1/cm]                                   5.14048714338585E+03
 

 CELL_TOP| Volume [angstrom^3]:                                      8000.000000
 CELL_TOP| Vector a [angstrom    20.000     0.000     0.000   |a| =    20.000000
 CELL_TOP| Vector b [angstrom     0.000    20.000     0.000   |b| =    20.000000
 CELL_TOP| Vector c [angstrom     0.000     0.000    20.000   |c| =    20.000000
 CELL_TOP| Angle (b,c), alpha [degree]:                                90.000000
 CELL_TOP| Angle (a,c), beta  [degree]:                                90.000000
 CELL_TOP| Angle (a,b), gamma [degree]:                                90.000000
 CELL_TOP| Numerically orthorhombic:                                         YES
 CELL_TOP| Periodicity                                                      NONE

 GENERATE|  Preliminary Number of Bonds generated:                             0
 GENERATE|  Achieved consistency in connectivity generation.

 CELL| Volume [angstrom^3]:                                          8000.000000
 CELL| Vector a [angstrom]:      20.000     0.000     0.000   |a| =    20.000000
 CELL| Vector b [angstrom]:       0.000    20.000     0.000   |b| =    20.000000
 CELL| Vector c [angstrom]:       0.000     0.000    20.000   |c| =    20.000000
 CELL| Angle (b,c), alpha [degree]:                                    90.000000
 CELL| Angle (a,c), beta  [degree]:                                    90.000000
 CELL| Angle (a,b), gamma [degree]:                                    90.000000
 CELL| Numerically orthorhombic:                                             YES
 CELL| Periodicity                                                          NONE

 CELL_REF| Volume [angstrom^3]:                                      8000.000000
 CELL_REF| Vector a [angstrom    20.000     0.000     0.000   |a| =    20.000000
 CELL_REF| Vector b [angstrom     0.000    20.000     0.000   |b| =    20.000000
 CELL_REF| Vector c [angstrom     0.000     0.000    20.000   |c| =    20.000000
 CELL_REF| Angle (b,c), alpha [degree]:                                90.000000
 CELL_REF| Angle (a,c), beta  [degree]:                                90.000000
 CELL_REF| Angle (a,b), gamma [degree]:                                90.000000
 CELL_REF| Numerically orthorhombic:                                         YES
 CELL_REF| Periodicity                                                      NONE

 *******************************************************************************
 *******************************************************************************
 **                                                                           **
 **     #####                         ##              ##                      **
 **    ##   ##            ##          ##              ##                      **
 **   ##     ##                       ##            ######                    **
 **   ##     ##  ##   ##  ##   #####  ##  ##   ####   ##    #####    #####    **
 **   ##     ##  ##   ##  ##  ##      ## ##   ##      ##   ##   ##  ##   ##   **
 **   ##  ## ##  ##   ##  ##  ##      ####     ###    ##   ######   ######    **
 **    ##  ###   ##   ##  ##  ##      ## ##      ##   ##   ##       ##        **
 **     #######   #####   ##   #####  ##  ##  ####    ##    #####   ##        **
 **           ##                                                    ##        **
 **                                                                           **
 **                                                ... make the atoms dance   **
 **                                                                           **
 **            Copyright (C) by CP2K developers group (2000-2024)             **
 **                      J. Chem. Phys. 152, 194103 (2020)                    **
 **                                                                           **
 *******************************************************************************

 DFT| Spin restricted Kohn-Sham (RKS) calculation                            RKS
 DFT| Multiplicity                                                             1
 DFT| Number of spin states                                                    1
 DFT| Charge                                                                   0
 DFT| Self-interaction correction (SIC)                                       NO
 DFT| Cutoffs: density                                              1.000000E-10
 DFT|          gradient                                             1.000000E-10
 DFT|          tau                                                  1.000000E-10
 DFT|          cutoff_smoothing_range                               0.000000E+00
 DFT| XC density smoothing                                                  NONE
 DFT| XC derivatives                                                          PW

 FUNCTIONAL| PBE:
 FUNCTIONAL| J.P.Perdew, K.Burke, M.Ernzerhof, Phys. Rev. Letter, vol. 77, n 18,
 FUNCTIONAL|  pp. 3865-3868, (1996)sx=0.750sc=1.000{spin unpolarized}           


 QS| Method:                                                                GAPW
 QS| Density plane wave grid type                        NON-SPHERICAL FULLSPACE
 QS| Number of grid levels:                                                    4
 QS| Density cutoff [a.u.]:                                                300.0
 QS| Multi grid cutoff [a.u.]: 1) grid level                               300.0
 QS|                           2) grid level                               100.0
 QS|                           3) grid level                                33.3
 QS|                           4) grid level                                11.1
 QS| Grid level progression factor:                                          3.0
 QS| Relative density cutoff [a.u.]:                                        30.0
 QS| Interaction thresholds: eps_pgf_orb:                                1.0E-05
 QS|                         eps_filter_matrix:                          0.0E+00
 QS|                         eps_core_charge:                            1.0E-12
 QS|                         eps_rho_gspace:                             1.0E-10
 QS|                         eps_rho_rspace:                             1.0E-10
 QS|                         eps_gvg_rspace:                             1.0E-05
 QS|                         eps_ppl:                                    1.0E-02
 QS|                         eps_ppnl:                                   1.0E-07
 QS| GAPW|      One center basis from orbital basis primitives
 QS| GAPW|                   eps_fit:                                    1.0E-04
 QS| GAPW|                   eps_iso:                                    1.0E-12
 QS| GAPW|                   eps_svd:                                    1.0E-08
 QS| GAPW|                   eps_cpc:                                    1.0E-10
 QS| GAPW|   atom-r-grid: quadrature:                                     GC_LOG
 QS| GAPW|      atom-s-grid:  max l :                                          4
 QS| GAPW|      max_l_rho0 :                                                   2


 ATOMIC KIND INFORMATION

  1. Atomic kind: H                                     Number of atoms:       6

     Orbital Basis Set                                               aug-cc-pvdz

       Number of orbital shell sets:                                           4
       Number of orbital shells:                                               5
       Number of primitive Cartesian functions:                                7
       Number of Cartesian basis functions:                                    9
       Number of spherical basis functions:                                    9
       Norm type:                                                              2

       Normalised Cartesian orbitals:

                        Set   Shell   Orbital            Exponent    Coefficient

                          1       1    1s               13.010000       0.096107
                                                         1.962000       0.163020
                                                         0.444600       0.185545
                                                         0.122000       0.073744

                          1       2    2s               13.010000       0.000000
                                                         1.962000       0.000000
                                                         0.444600       0.000000
                                                         0.122000       0.147123

                          2       1    1s                0.029740       0.051041

                          3       1    1px               0.727000       0.956881
                          3       1    1py               0.727000       0.956881
                          3       1    1pz               0.727000       0.956881

                          4       1    1px               0.141000       0.123158
                          4       1    1py               0.141000       0.123158
                          4       1    1pz               0.141000       0.123158

     RI Auxiliary Basis Set                                    aug-cc-pvdz-rifit

       Number of orbital shell sets:                                           9
       Number of orbital shells:                                               9
       Number of primitive Cartesian functions:                                9
       Number of Cartesian basis functions:                                   25
       Number of spherical basis functions:                                   23
       Norm type:                                                              2

       Normalised Cartesian orbitals:

                        Set   Shell   Orbital            Exponent    Coefficient

                          1       1    1s                5.115890       2.424381

                          2       1    1s                1.142965       0.787834

                          3       1    1s                0.291662       0.282859

                          4       1    1s                0.112720       0.138647

                          5       1    1px               1.914964       3.211004
                          5       1    1py               1.914964       3.211004
                          5       1    1pz               1.914964       3.211004

                          6       1    1px               0.986401       1.401222
                          6       1    1py               0.986401       1.401222
                          6       1    1pz               0.986401       1.401222

                          7       1    1px               0.285860       0.297942
                          7       1    1py               0.285860       0.297942
                          7       1    1pz               0.285860       0.297942

                          8       1    1dx2              1.172083       2.173136
                          8       1    1dxy              1.172083       3.763982
                          8       1    1dxz              1.172083       3.763982
                          8       1    1dy2              1.172083       2.173136
                          8       1    1dyz              1.172083       3.763982
                          8       1    1dz2              1.172083       2.173136

                          9       1    1dx2              0.303821       0.204640
                          9       1    1dxy              0.303821       0.354446
                          9       1    1dxz              0.303821       0.354446
                          9       1    1dy2              0.303821       0.204640
                          9       1    1dyz              0.303821       0.354446
                          9       1    1dz2              0.303821       0.204640

       Atomic covalent radius [Angstrom]:                                  0.320

       Atomic van der Waals radius [Angstrom]:                             1.090

     The atoms of this atomic kind are PAW atoms (GAPW):
       Hard Gaussian function radius:                                      1.200
       Rho0 radius:                                                        1.200
       Maximum GTO radius used for PAW projector construction:            24.566

     GAPW Soft Basis Set                                        aug-cc-pvdz_soft

       Number of orbital shell sets:                                           4
       Number of orbital shells:                                               5
       Number of primitive Cartesian functions:                                6
       Number of Cartesian basis functions:                                    9
       Number of spherical basis functions:                                    9
       Norm type:                                                              2

       Normalised Cartesian orbitals:

                        Set   Shell   Orbital            Exponent    Coefficient

                          1       1    1s                1.962000       0.163020
                                                         0.444600       0.185545
                                                         0.122000       0.073744

                          1       2    2s                1.962000       0.000000
                                                         0.444600       0.000000
                                                         0.122000       0.147123

                          2       1    1s                0.029740       0.051041

                          3       1    1px               0.727000       0.956881
                          3       1    1py               0.727000       0.956881
                          3       1    1pz               0.727000       0.956881

                          4       1    1px               0.141000       0.123158
                          4       1    1py               0.141000       0.123158
                          4       1    1pz               0.141000       0.123158

     AE Potential information for                                            ALL

       Description:                                       All-electron potential
                                          Krack, Parrinello, PCCP 2, 2105 (2000)

       Gaussian exponent of the core charge distribution:              12.500000
       Electronic configuration (s p d ...):                           1   0   0

  2. Atomic kind: C                                     Number of atoms:       6

     Orbital Basis Set                                               aug-cc-pvdz

       Number of orbital shell sets:                                           6
       Number of orbital shells:                                               9
       Number of primitive Cartesian functions:                               17
       Number of Cartesian basis functions:                                   25
       Number of spherical basis functions:                                   23
       Norm type:                                                              2

       Normalised Cartesian orbitals:

                        Set   Shell   Orbital            Exponent    Coefficient

                          1       1    1s             6665.000000       0.363803
                                                      1000.000000       0.675392
                                                       228.000000       1.132301
                                                        64.710000       1.654004
                                                        21.060000       1.924978
                                                         7.495000       1.448149
                                                         2.797000       0.439427
                                                         0.521500       0.006650
                                                         0.159600      -0.000574

                          1       2    2s             6665.000000      -0.076756
                                                      1000.000000      -0.146257
                                                       228.000000      -0.239407
                                                        64.710000      -0.379069
                                                        21.060000      -0.448104
                                                         7.495000      -0.484201
                                                         2.797000      -0.196168
                                                         0.521500       0.238162
                                                         0.159600       0.104468

                          1       3    3s             6665.000000       0.000000
                                                      1000.000000       0.000000
                                                       228.000000       0.000000
                                                        64.710000       0.000000
                                                        21.060000       0.000000
                                                         7.495000       0.000000
                                                         2.797000       0.000000
                                                         0.521500       0.000000
                                                         0.159600       0.179964

                          2       1    1s                0.046900       0.071827

                          3       1    1px               9.439000       0.898722
                                                         2.002000       0.711071
                                                         0.545600       0.339917
                                                         0.151700       0.063270
                          3       1    1py               9.439000       0.898722
                                                         2.002000       0.711071
                                                         0.545600       0.339917
                                                         0.151700       0.063270
                          3       1    1pz               9.439000       0.898722
                                                         2.002000       0.711071
                                                         0.545600       0.339917
                                                         0.151700       0.063270

                          3       2    2px               9.439000       0.000000
                                                         2.002000       0.000000
                                                         0.545600       0.000000
                                                         0.151700       0.134950
                          3       2    2py               9.439000       0.000000
                                                         2.002000       0.000000
                                                         0.545600       0.000000
                                                         0.151700       0.134950
                          3       2    2pz               9.439000       0.000000
                                                         2.002000       0.000000
                                                         0.545600       0.000000
                                                         0.151700       0.134950

                          4       1    1px               0.040410       0.025826
                          4       1    1py               0.040410       0.025826
                          4       1    1pz               0.040410       0.025826

                          5       1    1dx2              0.550000       0.578155
                          5       1    1dxy              0.550000       1.001394
                          5       1    1dxz              0.550000       1.001394
                          5       1    1dy2              0.550000       0.578155
                          5       1    1dyz              0.550000       1.001394
                          5       1    1dz2              0.550000       0.578155

                          6       1    1dx2              0.151000       0.060203
                          6       1    1dxy              0.151000       0.104275
                          6       1    1dxz              0.151000       0.104275
                          6       1    1dy2              0.151000       0.060203
                          6       1    1dyz              0.151000       0.104275
                          6       1    1dz2              0.151000       0.060203

     RI Auxiliary Basis Set                                    aug-cc-pvdz-rifit

       Number of orbital shell sets:                                          22
       Number of orbital shells:                                              22
       Number of primitive Cartesian functions:                               22
       Number of Cartesian basis functions:                                   86
       Number of spherical basis functions:                                   72
       Norm type:                                                              2

       Normalised Cartesian orbitals:

                        Set   Shell   Orbital            Exponent    Coefficient

                          1       1    1s               62.745300      15.888979

                          2       1    1s               13.804500       5.104176

                          3       1    1s                4.772770       2.301378

                          4       1    1s                1.513330       0.972434

                          5       1    1s                0.782697       0.593069

                          6       1    1s                0.409072       0.364552

                          7       1    1s                0.206796       0.218558

                          8       1    1s                0.073830       0.100945

                          9       1    1px              20.885100      63.640823
                          9       1    1py              20.885100      63.640823
                          9       1    1pz              20.885100      63.640823

                         10       1    1px               6.005230      13.399918
                         10       1    1py               6.005230      13.399918
                         10       1    1pz               6.005230      13.399918

                         11       1    1px               1.720600       2.808924
                         11       1    1py               1.720600       2.808924
                         11       1    1pz               1.720600       2.808924

                         12       1    1px               0.754465       1.002280
                         12       1    1py               0.754465       1.002280
                         12       1    1pz               0.754465       1.002280

                         13       1    1px               0.321667       0.345301
                         13       1    1py               0.321667       0.345301
                         13       1    1pz               0.321667       0.345301

                         14       1    1px               0.125953       0.106954
                         14       1    1py               0.125953       0.106954
                         14       1    1pz               0.125953       0.106954

                         15       1    1dx2             10.171500      95.352748
                         15       1    1dxy             10.171500     165.155804
                         15       1    1dxz             10.171500     165.155804
                         15       1    1dy2             10.171500      95.352748
                         15       1    1dyz             10.171500     165.155804
                         15       1    1dz2             10.171500      95.352748

                         16       1    1dx2              2.678440       9.230024
                         16       1    1dxy              2.678440      15.986870
                         16       1    1dxz              2.678440      15.986870
                         16       1    1dy2              2.678440       9.230024
                         16       1    1dyz              2.678440      15.986870
                         16       1    1dz2              2.678440       9.230024

                         17       1    1dx2              0.922515       1.429266
                         17       1    1dxy              0.922515       2.475561
                         17       1    1dxz              0.922515       2.475561
                         17       1    1dy2              0.922515       1.429266
                         17       1    1dyz              0.922515       2.475561
                         17       1    1dz2              0.922515       1.429266

                         18       1    1dx2              0.340842       0.250252
                         18       1    1dxy              0.340842       0.433449
                         18       1    1dxz              0.340842       0.433449
                         18       1    1dy2              0.340842       0.250252
                         18       1    1dyz              0.340842       0.433449
                         18       1    1dz2              0.340842       0.250252

                         19       1    1dx2              0.110211       0.034698
                         19       1    1dxy              0.110211       0.060099
                         19       1    1dxz              0.110211       0.060099
                         19       1    1dy2              0.110211       0.034698
                         19       1    1dyz              0.110211       0.060099
                         19       1    1dz2              0.110211       0.034698

                         20       1    1fx3              2.742930      14.254027
                         20       1    1fx2y             2.742930      31.872974
                         20       1    1fx2z             2.742930      31.872974
                         20       1    1fxy2             2.742930      31.872974
                         20       1    1fxyz             2.742930      55.205610
                         20       1    1fxz2             2.742930      31.872974
                         20       1    1fy3              2.742930      14.254027
                         20       1    1fy2z             2.742930      31.872974
                         20       1    1fyz2             2.742930      31.872974
                         20       1    1fz3              2.742930      14.254027

                         21       1    1fx3              0.895756       1.149162
                         21       1    1fx2y             0.895756       2.569605
                         21       1    1fx2z             0.895756       2.569605
                         21       1    1fxy2             0.895756       2.569605
                         21       1    1fxyz             0.895756       4.450686
                         21       1    1fxz2             0.895756       2.569605
                         21       1    1fy3              0.895756       1.149162
                         21       1    1fy2z             0.895756       2.569605
                         21       1    1fyz2             0.895756       2.569605
                         21       1    1fz3              0.895756       1.149162

                         22       1    1fx3              0.317146       0.111119
                         22       1    1fx2y             0.317146       0.248470
                         22       1    1fx2z             0.317146       0.248470
                         22       1    1fxy2             0.317146       0.248470
                         22       1    1fxyz             0.317146       0.430362
                         22       1    1fxz2             0.317146       0.248470
                         22       1    1fy3              0.317146       0.111119
                         22       1    1fy2z             0.317146       0.248470
                         22       1    1fyz2             0.317146       0.248470
                         22       1    1fz3              0.317146       0.111119

       Atomic covalent radius [Angstrom]:                                  0.770

       Atomic van der Waals radius [Angstrom]:                             1.700

     The atoms of this atomic kind are PAW atoms (GAPW):
       Hard Gaussian function radius:                                      1.512
       Rho0 radius:                                                        1.512
       Maximum GTO radius used for PAW projector construction:            24.566

     GAPW Soft Basis Set                                        aug-cc-pvdz_soft

       Number of orbital shell sets:                                           6
       Number of orbital shells:                                               9
       Number of primitive Cartesian functions:                               10
       Number of Cartesian basis functions:                                   25
       Number of spherical basis functions:                                   23
       Norm type:                                                              2

       Normalised Cartesian orbitals:

                        Set   Shell   Orbital            Exponent    Coefficient

                          1       1    1s                2.797000       0.439427
                                                         0.521500       0.006650
                                                         0.159600      -0.000574

                          1       2    2s                2.797000      -0.196168
                                                         0.521500       0.238162
                                                         0.159600       0.104468

                          1       3    3s                2.797000       0.000000
                                                         0.521500       0.000000
                                                         0.159600       0.179964

                          2       1    1s                0.046900       0.071827

                          3       1    1px               2.002000       0.711071
                                                         0.545600       0.339917
                                                         0.151700       0.063270
                          3       1    1py               2.002000       0.711071
                                                         0.545600       0.339917
                                                         0.151700       0.063270
                          3       1    1pz               2.002000       0.711071
                                                         0.545600       0.339917
                                                         0.151700       0.063270

                          3       2    2px               2.002000       0.000000
                                                         0.545600       0.000000
                                                         0.151700       0.134950
                          3       2    2py               2.002000       0.000000
                                                         0.545600       0.000000
                                                         0.151700       0.134950
                          3       2    2pz               2.002000       0.000000
                                                         0.545600       0.000000
                                                         0.151700       0.134950

                          4       1    1px               0.040410       0.025826
                          4       1    1py               0.040410       0.025826
                          4       1    1pz               0.040410       0.025826

                          5       1    1dx2              0.550000       0.578155
                          5       1    1dxy              0.550000       1.001394
                          5       1    1dxz              0.550000       1.001394
                          5       1    1dy2              0.550000       0.578155
                          5       1    1dyz              0.550000       1.001394
                          5       1    1dz2              0.550000       0.578155

                          6       1    1dx2              0.151000       0.060203
                          6       1    1dxy              0.151000       0.104275
                          6       1    1dxz              0.151000       0.104275
                          6       1    1dy2              0.151000       0.060203
                          6       1    1dyz              0.151000       0.104275
                          6       1    1dz2              0.151000       0.060203

     AE Potential information for                                            ALL

       Description:                                       All-electron potential
                                          Krack, Parrinello, PCCP 2, 2105 (2000)

       Gaussian exponent of the core charge distribution:               4.109048
       Electronic configuration (s p d ...):                           4   2   0


 MOLECULE KIND INFORMATION


 All atoms are their own molecule, skipping detailed information


 TOTAL NUMBERS AND MAXIMUM NUMBERS

  Total number of            - Atomic kinds:                                   2
                             - Atoms:                                         12
                             - Shell sets:                                    60
                             - Shells:                                        84
                             - Primitive Cartesian functions:                144
                             - Cartesian basis functions:                    204
                             - Spherical basis functions:                    192

  Maximum angular momentum of the orbital basis functions:                     2


 MODULE QUICKSTEP: ATOMIC COORDINATES IN ANGSTROM

   Atom Kind Element         X             Y             Z       Z(eff)     Mass
      1    1 H     1     10.000000     12.484212     10.000000   1.0000   1.0079
      2    1 H     1     10.000000      7.515788     10.000000   1.0000   1.0079
      3    1 H     1     12.151390     11.242106     10.000000   1.0000   1.0079
      4    1 H     1      7.848610      8.757894     10.000000   1.0000   1.0079
      5    1 H     1      7.848610     11.242106     10.000000   1.0000   1.0079
      6    1 H     1     12.151390      8.757894     10.000000   1.0000   1.0079
      7    2 C     6     10.000000     11.396792     10.000000   6.0000  12.0107
      8    2 C     6     10.000000      8.603208     10.000000   6.0000  12.0107
      9    2 C     6     11.209657     10.698396     10.000000   6.0000  12.0107
     10    2 C     6      8.790343      9.301604     10.000000   6.0000  12.0107
     11    2 C     6      8.790343     10.698396     10.000000   6.0000  12.0107
     12    2 C     6     11.209657      9.301604     10.000000   6.0000  12.0107



 SCF PARAMETERS         Density guess:                                   RESTART
                        --------------------------------------------------------
                        max_scf:                                             200
                        max_scf_history:                                       0
                        max_diis:                                              4
                        --------------------------------------------------------
                        eps_scf:                                        1.00E-09
                        eps_scf_history:                                0.00E+00
                        eps_diis:                                       1.00E-01
                        eps_eigval:                                     1.00E-05
                        --------------------------------------------------------
                        level_shift [a.u.]:                             0.000000
                        added MOs                                       171    0
                        --------------------------------------------------------
                        Mixing method:                            BROYDEN_MIXING
                                                charge density mixing in g-space
                        --------------------------------------------------------
                        No outer SCF

 PW_GRID| Information for grid number                                          1
 PW_GRID| Grid distributed over                                    16 processors
 PW_GRID| Real space group dimensions                                    16    1
 PW_GRID| the grid is blocked:                                                NO
 PW_GRID| Cutoff [a.u.]                                                    300.0
 PW_GRID| spherical cutoff:                                                   NO
 PW_GRID|   Bounds   1           -150     149                Points:         300
 PW_GRID|   Bounds   2           -150     149                Points:         300
 PW_GRID|   Bounds   3           -150     149                Points:         300
 PW_GRID| Volume element (a.u.^3)  0.2000E-02     Volume (a.u.^3)     53986.6767
 PW_GRID| Grid span                                                    FULLSPACE
 PW_GRID|   Distribution                         Average         Max         Min
 PW_GRID|   G-Vectors                          1687500.0     1687500     1687500
 PW_GRID|   G-Rays                                5625.0        5625        5625
 PW_GRID|   Real Space Points                  1687500.0     1710000     1620000

 PW_GRID| Information for grid number                                          2
 PW_GRID| Number of the reference grid                                         1
 PW_GRID| Grid distributed over                                    16 processors
 PW_GRID| Real space group dimensions                                    16    1
 PW_GRID| the grid is blocked:                                                NO
 PW_GRID| Cutoff [a.u.]                                                    100.0
 PW_GRID| spherical cutoff:                                                   NO
 PW_GRID|   Bounds   1            -90      89                Points:         180
 PW_GRID|   Bounds   2            -90      89                Points:         180
 PW_GRID|   Bounds   3            -90      89                Points:         180
 PW_GRID| Volume element (a.u.^3)  0.9257E-02     Volume (a.u.^3)     53986.6767
 PW_GRID| Grid span                                                    FULLSPACE
 PW_GRID|   Distribution                         Average         Max         Min
 PW_GRID|   G-Vectors                           364500.0      364680      364320
 PW_GRID|   G-Rays                                2025.0        2026        2024
 PW_GRID|   Real Space Points                   364500.0      388800      356400

 PW_GRID| Information for grid number                                          3
 PW_GRID| Number of the reference grid                                         1
 PW_GRID| Grid distributed over                                    16 processors
 PW_GRID| Real space group dimensions                                    16    1
 PW_GRID| the grid is blocked:                                                NO
 PW_GRID| Cutoff [a.u.]                                                     33.3
 PW_GRID| spherical cutoff:                                                   NO
 PW_GRID|   Bounds   1            -50      49                Points:         100
 PW_GRID|   Bounds   2            -50      49                Points:         100
 PW_GRID|   Bounds   3            -50      49                Points:         100
 PW_GRID| Volume element (a.u.^3)  0.5399E-01     Volume (a.u.^3)     53986.6767
 PW_GRID| Grid span                                                    FULLSPACE
 PW_GRID|   Distribution                         Average         Max         Min
 PW_GRID|   G-Vectors                            62500.0       62600       62400
 PW_GRID|   G-Rays                                 625.0         626         624
 PW_GRID|   Real Space Points                    62500.0       70000       60000

 PW_GRID| Information for grid number                                          4
 PW_GRID| Number of the reference grid                                         1
 PW_GRID| Grid distributed over                                    16 processors
 PW_GRID| Real space group dimensions                                    16    1
 PW_GRID| the grid is blocked:                                                NO
 PW_GRID| Cutoff [a.u.]                                                     11.1
 PW_GRID| spherical cutoff:                                                   NO
 PW_GRID|   Bounds   1            -30      29                Points:          60
 PW_GRID|   Bounds   2            -30      29                Points:          60
 PW_GRID|   Bounds   3            -30      29                Points:          60
 PW_GRID| Volume element (a.u.^3)  0.2499         Volume (a.u.^3)     53986.6767
 PW_GRID| Grid span                                                    FULLSPACE
 PW_GRID|   Distribution                         Average         Max         Min
 PW_GRID|   G-Vectors                            13500.0       13560       13440
 PW_GRID|   G-Rays                                 225.0         226         224
 PW_GRID|   Real Space Points                    13500.0       14400       10800

 POISSON| Solver                                                         WAVELET
 POISSON| Wavelet| Scaling function                                           40
 POISSON| Periodicity                                                       NONE

 RS_GRID| Information for grid number                                          1
 RS_GRID|   Bounds   1           -150     149                Points:         300
 RS_GRID|   Bounds   2           -150     149                Points:         300
 RS_GRID|   Bounds   3           -150     149                Points:         300
 RS_GRID| Real space distribution over                                  4 groups
 RS_GRID| Real space distribution along direction                              2
 RS_GRID| Border size                                                         24
 RS_GRID| Real space distribution over                                  4 groups
 RS_GRID| Real space distribution along direction                              3
 RS_GRID| Border size                                                         24
 RS_GRID|   Distribution                         Average         Max         Min
 RS_GRID|   Planes                                 123.0         123         123
 RS_GRID|   Distribution                         Average         Max         Min
 RS_GRID|   Planes                                 123.0         123         123

 RS_GRID| Information for grid number                                          2
 RS_GRID|   Bounds   1            -90      89                Points:         180
 RS_GRID|   Bounds   2            -90      89                Points:         180
 RS_GRID|   Bounds   3            -90      89                Points:         180
 RS_GRID| Real space distribution over                                  4 groups
 RS_GRID| Real space distribution along direction                              2
 RS_GRID| Border size                                                         25
 RS_GRID| Real space distribution over                                  4 groups
 RS_GRID| Real space distribution along direction                              3
 RS_GRID| Border size                                                         25
 RS_GRID|   Distribution                         Average         Max         Min
 RS_GRID|   Planes                                  95.0          95          95
 RS_GRID|   Distribution                         Average         Max         Min
 RS_GRID|   Planes                                  95.0          95          95

 RS_GRID| Information for grid number                                          3
 RS_GRID|   Bounds   1            -50      49                Points:         100
 RS_GRID|   Bounds   2            -50      49                Points:         100
 RS_GRID|   Bounds   3            -50      49                Points:         100
 RS_GRID| Real space fully replicated
 RS_GRID| Group size                                                           1

 RS_GRID| Information for grid number                                          4
 RS_GRID|   Bounds   1            -30      29                Points:          60
 RS_GRID|   Bounds   2            -30      29                Points:          60
 RS_GRID|   Bounds   3            -30      29                Points:          60
 RS_GRID| Real space fully replicated
 RS_GRID| Group size                                                           1

  HFX_INFO| Replica ID:                                                        1
  HFX_INFO| FRACTION:                                               0.2500000000
  HFX_INFO| Interaction Potential:                                       COULOMB
  HFX_INFO| EPS_SCHWARZ:                                                 1.0E-10
  HFX_INFO| EPS_SCHWARZ_FORCES                                           1.0E-08
  HFX_INFO| EPS_STORAGE_SCALING:                                         1.0E+00
  HFX_INFO| NBINS:                                                            64
  HFX_INFO| BLOCK_SIZE:                                                        1
  HFX_INFO| Number of periodic shells considered:                           NONE
  HFX_INFO| Number of periodic cells considered:                            NONE


 Number of electrons:                                                         42
 Number of occupied orbitals:                                                 21
 Number of molecular orbitals:                                               192

 Number of orbital functions:                                                192
 Number of independent orbital functions:                                    192

 Extrapolation method: initial_guess

 *** WARNING in qs_initial_guess.F:306 :: User requested to restart the    ***
 *** wavefunction from the file named: Benzene-RESTART.wfn. This file does ***
 *** not exist. Please check the existence of the file or change properly  ***
 *** the value of the keyword WFN_RESTART_FILE_NAME. Calculation continues ***
 *** using ATOMIC GUESS.                                                   ***


 Atomic guess: The first density matrix is obtained in terms of atomic orbitals
               and electronic configurations assigned to each atomic kind

 Guess for atomic kind: H

 Electronic structure
    Total number of core electrons                                          0.00
    Total number of valence electrons                                       1.00
    Total number of electrons                                               1.00
    Multiplicity                                                   not specified
    S      1.00


 *******************************************************************************
                  Iteration          Convergence                     Energy [au]
 *******************************************************************************
                          1        0.880988E-02                  -0.444778274653
                          2        0.791349E-03                  -0.444877834394
                          3        0.111042E-03                  -0.444880192149
                          4        0.306660E-07                  -0.444880212296

 Energy components [Hartree]           Total Energy ::           -0.444880212296
                                        Band Energy ::           -0.232361879729
                                     Kinetic Energy ::            0.420568354334
                                   Potential Energy ::           -0.865448566630
                                      Virial (-V/T) ::            2.057807150044
                                        Core Energy ::           -0.495477856147
                                          XC Energy ::           -0.232385335983
                                     Coulomb Energy ::            0.282982979834

 Orbital energies  State     L     Occupation   Energy[a.u.]          Energy[eV]

                       1     0          1.000      -0.232362           -6.322888


 Total Electron Density at R=0:                                         0.221399

 Guess for atomic kind: C

 Electronic structure
    Total number of core electrons                                          0.00
    Total number of valence electrons                                       6.00
    Total number of electrons                                               6.00
    Multiplicity                                                   not specified
    S      2.00  2.00
    P      2.00


 *******************************************************************************
                  Iteration          Convergence                     Energy [au]
 *******************************************************************************
                          1        0.121977                     -37.400018089324
                          2        0.904329E-01                 -37.406032348656
                          3        0.638681E-03                 -37.414959418976
                          4        0.141121E-03                 -37.414959795862
                          5        0.446247E-06                 -37.414959815731

 Energy components [Hartree]           Total Energy ::          -37.414959815731
                                        Band Energy ::          -21.286259476185
                                     Kinetic Energy ::           37.482739917864
                                   Potential Energy ::          -74.897699733595
                                      Virial (-V/T) ::            1.998191698305
                                        Core Energy ::          -50.304318516063
                                          XC Energy ::           -4.741579470163
                                     Coulomb Energy ::           17.630938170495

 Orbital energies  State     L     Occupation   Energy[a.u.]          Energy[eV]

                       1     0          2.000      -9.942952         -270.561481
                       2     0          2.000      -0.501864          -13.656426

                       1     1          2.000      -0.198313           -5.396382


 Total Electron Density at R=0:                                       121.940282
 Re-scaling the density matrix to get the right number of electrons
                  # Electrons              Trace(P)               Scaling factor
                           42                42.000                        1.000


 SCF WAVEFUNCTION OPTIMIZATION

  Step     Update method      Time    Convergence         Total energy    Change
  ------------------------------------------------------------------------------

  HFX_MEM_INFO| Est. max. program size before HFX [MiB]:                    1240
  HFX_MEM_INFO| Number of cart. primitive ERI's calculated:            906463185
  HFX_MEM_INFO| Number of sph. ERI's calculated:                       208642722
  HFX_MEM_INFO| Number of sph. ERI's stored in-core:                   208642722
  HFX_MEM_INFO| Number of sph. ERI's stored on disk:                           0
  HFX_MEM_INFO| Number of sph. ERI's calculated on the fly:                    0
  HFX_MEM_INFO| Total memory consumption ERI's RAM [MiB]:                    610
  HFX_MEM_INFO| Whereof max-vals [MiB]:                                        1
  HFX_MEM_INFO| Total compression factor ERI's RAM:                         2.61
  HFX_MEM_INFO| Total memory consumption ERI's disk [MiB]:                     0
  HFX_MEM_INFO| Total compression factor ERI's disk:                        0.00
  HFX_MEM_INFO| Size of density/Fock matrix [MiB]:                             0
  HFX_MEM_INFO| Size of buffers [MiB]:                                         0
  HFX_MEM_INFO| Est. max. program size after HFX  [MiB]:                    1527

     1 NoMix/Diag. 0.40E+00    6.4     6.48699348      -233.5305350402 -2.34E+02
     2 Broy./Diag. 0.40E+00    3.1     0.38852604      -228.8760614189  4.65E+00
     3 Broy./Diag. 0.40E+00    3.2     0.73992421      -231.2140112892 -2.34E+00
     4 Broy./Diag. 0.40E+00    3.2     0.19886123      -231.9877745093 -7.74E-01
     5 Broy./Diag. 0.40E+00    3.2     0.10438816      -231.8145932162  1.73E-01
     6 Broy./Diag. 0.40E+00    3.3     0.03686620      -231.9606585202 -1.46E-01
     7 Broy./Diag. 0.40E+00    3.3     0.07633456      -231.9566011793  4.06E-03
     8 Broy./Diag. 0.40E+00    3.3     0.02301893      -231.9529584768  3.64E-03
     9 Broy./Diag. 0.40E+00    3.3     0.10219374      -231.9829328082 -3.00E-02
    10 Broy./Diag. 0.40E+00    3.3     0.05257303      -231.9890031688 -6.07E-03
    11 Broy./Diag. 0.40E+00    3.3     0.00928554      -231.9917876844 -2.78E-03
    12 Broy./Diag. 0.40E+00    3.3     0.02857080      -231.9932466667 -1.46E-03
    13 Broy./Diag. 0.40E+00    3.3     0.03480769      -231.9908808788  2.37E-03
    14 Broy./Diag. 0.40E+00    3.3     0.03290247      -231.9893197575  1.56E-03
    15 Broy./Diag. 0.40E+00    3.3     0.00366896      -231.9897882518 -4.68E-04
    16 Broy./Diag. 0.40E+00    3.2     0.00818221      -231.9903374318 -5.49E-04
    17 Broy./Diag. 0.40E+00    3.3     0.00445143      -231.9905985937 -2.61E-04
    18 Broy./Diag. 0.40E+00    3.3     0.01323980      -231.9907775550 -1.79E-04
    19 Broy./Diag. 0.40E+00    3.3     0.00096059      -231.9906275111  1.50E-04
    20 Broy./Diag. 0.40E+00    3.2     0.00128324      -231.9904328873  1.95E-04
    21 Broy./Diag. 0.40E+00    3.3     0.00126536      -231.9906138437 -1.81E-04
    22 Broy./Diag. 0.40E+00    3.3     0.00060824      -231.9906225175 -8.67E-06
    23 Broy./Diag. 0.40E+00    3.2     0.00237800      -231.9905707937  5.17E-05
    24 Broy./Diag. 0.40E+00    3.3     0.00131721      -231.9905608299  9.96E-06
    25 Broy./Diag. 0.40E+00    3.3     0.00111083      -231.9905363837  2.44E-05
    26 Broy./Diag. 0.40E+00    3.3     0.00020605      -231.9905325877  3.80E-06
    27 Broy./Diag. 0.40E+00    3.2     0.00043181      -231.9905453956 -1.28E-05
    28 Broy./Diag. 0.40E+00    3.2     0.00017941      -231.9905528728 -7.48E-06
    29 Broy./Diag. 0.40E+00    3.2     0.00015684      -231.9905554031 -2.53E-06
    30 Broy./Diag. 0.40E+00    3.2     0.00027034      -231.9905524104  2.99E-06
    31 Broy./Diag. 0.40E+00    3.3     0.00010374      -231.9905529785 -5.68E-07
    32 Broy./Diag. 0.40E+00    3.3     0.00004416      -231.9905525826  3.96E-07
    33 Broy./Diag. 0.40E+00    3.3     0.00006687      -231.9905524952  8.74E-08
    34 Broy./Diag. 0.40E+00    3.3     0.00002905      -231.9905527749 -2.80E-07
    35 Broy./Diag. 0.40E+00    3.3     0.00005041      -231.9905526580  1.17E-07
    36 Broy./Diag. 0.40E+00    3.3     0.00002629      -231.9905524104  2.48E-07
    37 Broy./Diag. 0.40E+00    3.3     0.00000867      -231.9905524429 -3.25E-08
    38 Broy./Diag. 0.40E+00    3.3     0.00000043      -231.9905524295  1.34E-08
    39 Broy./Diag. 0.40E+00    3.3     0.00000844      -231.9905523501  7.93E-08
    40 Broy./Diag. 0.40E+00    3.3     0.00000499      -231.9905523163  3.38E-08
    41 Broy./Diag. 0.40E+00    3.3     0.00000200      -231.9905523326 -1.63E-08
    42 Broy./Diag. 0.40E+00    3.3     0.00000051      -231.9905523371 -4.56E-09
    43 Broy./Diag. 0.40E+00    3.3     0.00000090      -231.9905523464 -9.27E-09
    44 Broy./Diag. 0.40E+00    3.3     0.00000217      -231.9905523415  4.89E-09
    45 Broy./Diag. 0.40E+00    3.3     0.00000074      -231.9905523378  3.72E-09
    46 Broy./Diag. 0.40E+00    3.3     0.00000211      -231.9905523507 -1.29E-08
    47 Broy./Diag. 0.40E+00    3.3     0.00000016      -231.9905523590 -8.24E-09
    48 Broy./Diag. 0.40E+00    3.3     0.00000018      -231.9905523550  3.96E-09
    49 Broy./Diag. 0.40E+00    3.3     0.00000054      -231.9905523558 -7.58E-10
    50 Broy./Diag. 0.40E+00    3.3     0.00000056      -231.9905523571 -1.32E-09
    51 Broy./Diag. 0.40E+00    3.3     0.00000037      -231.9905523564  6.79E-10
    52 Broy./Diag. 0.40E+00    3.3     0.00000004      -231.9905523563  1.13E-10
    53 Broy./Diag. 0.40E+00    3.3     0.00000012      -231.9905523562  1.09E-10
    54 Broy./Diag. 0.40E+00    3.3     0.00000014      -231.9905523566 -4.49E-10
    55 Broy./Diag. 0.40E+00    3.3     7.1439E-09      -231.9905523573 -6.73E-10
    56 Broy./Diag. 0.40E+00    3.3     0.00000007      -231.9905523573 -8.84E-12
    57 Broy./Diag. 0.40E+00    3.3     4.3485E-09      -231.9905523573  1.19E-12
    58 Broy./Diag. 0.40E+00    3.3     6.1578E-09      -231.9905523574 -7.22E-11
    59 Broy./Diag. 0.40E+00    3.3     0.00000001      -231.9905523572  1.78E-10
    60 Broy./Diag. 0.40E+00    3.3     6.4713E-09      -231.9905523572  4.71E-11
    61 Broy./Diag. 0.40E+00    3.3     4.8510E-09      -231.9905523572 -2.32E-11
    62 Broy./Diag. 0.40E+00    3.3     8.6846E-09      -231.9905523572  1.99E-11
    63 Broy./Diag. 0.40E+00    3.3     1.3680E-09      -231.9905523572  6.22E-12
    64 Broy./Diag. 0.40E+00    3.3     4.1210E-09      -231.9905523572  9.66E-13
    65 Broy./Diag. 0.40E+00    3.3     5.2102E-09      -231.9905523571  1.09E-11
    66 Broy./Diag. 0.40E+00    3.3     3.2558E-09      -231.9905523571  1.76E-12
    67 Broy./Diag. 0.40E+00    3.2     9.9904E-10      -231.9905523571  1.48E-12

  *** SCF run converged in    67 steps ***


  Electronic density on regular grids:        -30.8056781418       11.1943218582
  Core density on regular grids:               42.0000000000       -0.0000000000
  Hard and soft densities (Lebedev):         -253.2028466067     -242.0085243592
  Total Rho_soft + Rho1_hard - Rho1_soft      -42.0000003894
  Total charge density (r-space):              -0.0000003894
  Total Rho_soft + Rho0_soft (g-space):        -0.0000004486

  Overlap energy of the core charge distribution:               0.00001280290379
  Self energy of the core charge distribution:               -183.13932346752364
  Core Hamiltonian energy:                                    -41.08564358351507
  Hartree energy:                                              74.75144107506028
  Exchange-correlation energy:                                -10.11437296348149
  Hartree-Fock Exchange energy:                                -8.30101769125189

  GAPW| Exc from hard and soft atomic rho1:                   -16.07385801796148
  GAPW| local Eh = 1 center integrals:                        -48.02779051136956

  Total energy:                                              -231.99055235713899

 !-----------------------------------------------------------------------------!
                     Mulliken Population Analysis

 #  Atom  Element  Kind  Atomic population                           Net charge
       1     H        1          1.581152                             -0.581152
       2     H        1          1.581152                             -0.581152
       3     H        1          1.581152                             -0.581152
       4     H        1          1.581152                             -0.581152
       5     H        1          1.581152                             -0.581152
       6     H        1          1.581152                             -0.581152
       7     C        2          5.418818                              0.581182
       8     C        2          5.418818                              0.581182
       9     C        2          5.418863                              0.581137
      10     C        2          5.418863                              0.581137
      11     C        2          5.418863                              0.581137
      12     C        2          5.418863                              0.581137
 # Total charge                             42.000000                 -0.000000

 !-----------------------------------------------------------------------------!

 !-----------------------------------------------------------------------------!
                           Hirshfeld Charges

  #Atom  Element  Kind  Ref Charge     Population                    Net charge
      1       H      1       1.000          0.509                         0.491
      2       H      1       1.000          0.509                         0.491
      3       H      1       1.000          0.509                         0.491
      4       H      1       1.000          0.509                         0.491
      5       H      1       1.000          0.509                         0.491
      6       H      1       1.000          0.509                         0.491
      7       C      2       6.000          6.485                        -0.485
      8       C      2       6.000          6.485                        -0.485
      9       C      2       6.000          6.485                        -0.485
     10       C      2       6.000          6.485                        -0.485
     11       C      2       6.000          6.485                        -0.485
     12       C      2       6.000          6.485                        -0.485

  Total Charge                                                            0.036
 !-----------------------------------------------------------------------------!

 MOMENTS
  The electric/magnetic moments are written to file:
  Benzene-MOMENTS-moments-1.dat

  
 -------------------------------------------------------------------------------
 -                                                                             -
 -                          BANDSTRUCTURE CALCULATION                          -
 -                                                                             -
 -------------------------------------------------------------------------------
  
 Number of occupied molecular orbitals (MOs) = Number of occupied bands       21
 Number of unoccupied (= virtual) MOs = Number of unoccupied bands           171
 Number of Gaussian basis functions for MOs                                  192
 K-point mesh for the density of states (DOS) and the self-energy      1   1   1
  
 -------------------------------------------------------------------------------
 -                                                                             -
 -                              GW CALCULATION                                 -
 -                                                                             -
 -------------------------------------------------------------------------------
  
 Input: Number of time/freq. points                                           30
 Input: Filter threshold for sparse tensor operations                    1.0E-08
 Apply Hedin shift                                                             F
  
 Number of auxiliary Gaussian basis functions for , , W                    570
 Cutoff radius for the truncated Coulomb operator in ^x:               2645.9 
 Cutoff radius for the truncated Coulomb operator in RI metric:            3.0 
 Regularization parameter of RI                                          0.0E+00
 Lattice sum size for V(k):                                                    3
  
 K-point mesh 1 for , , W                                            1   1   1
 K-point mesh 2 for , , W (for k-point extrapolation of W)           1   1   1
 Approximate the k-point extrapolation                                         F
 Group size for tensor operations                                             16
 
 Computed 3-center integrals (|P), execution time                        0.8 s
 Percentage of non-zero (|P)                                         100.000 %
 Max. distance between , in non-zero (|P)                              5.0 A
 Required memory if storing all 3-center integrals (|P)                   0 GB
 
 Number of i and j atoms in M_P(), N_Q():                               21
 Number of inner loop atoms for  in M_P = sum_ (|P) G_                12
 
 SCF direct band gap (eV)                                                   6.99
 Max. SCF eigval diff. (eV)                                            272392.52
 E-Range for minimax grid                                               38985.36
 Number of Pad parameters for analytic continuation:                          6
 
 Computed (i,k=0) for time point            1 / 30,    Execution time    0.8 s
 Computed (i,k=0) for time point            2 / 30,    Execution time    0.5 s
 Computed (i,k=0) for time point            3 / 30,    Execution time    0.5 s
 Computed (i,k=0) for time point            4 / 30,    Execution time    0.5 s
 Computed (i,k=0) for time point            5 / 30,    Execution time    0.5 s
 Computed (i,k=0) for time point            6 / 30,    Execution time    0.5 s
 Computed (i,k=0) for time point            7 / 30,    Execution time    0.5 s
 Computed (i,k=0) for time point            8 / 30,    Execution time    0.5 s
 Computed (i,k=0) for time point            9 / 30,    Execution time    0.5 s
 Computed (i,k=0) for time point           10 / 30,    Execution time    0.5 s
 Computed (i,k=0) for time point           11 / 30,    Execution time    0.5 s
 Computed (i,k=0) for time point           12 / 30,    Execution time    0.5 s
 Computed (i,k=0) for time point           13 / 30,    Execution time    0.5 s
 Computed (i,k=0) for time point           14 / 30,    Execution time    0.5 s
 Computed (i,k=0) for time point           15 / 30,    Execution time    0.5 s
 Computed (i,k=0) for time point           16 / 30,    Execution time    0.5 s
 Computed (i,k=0) for time point           17 / 30,    Execution time    0.5 s
 Computed (i,k=0) for time point           18 / 30,    Execution time    0.5 s
 Computed (i,k=0) for time point           19 / 30,    Execution time    0.5 s
 Computed (i,k=0) for time point           20 / 30,    Execution time    0.5 s
 Computed (i,k=0) for time point           21 / 30,    Execution time    0.5 s
 Computed (i,k=0) for time point           22 / 30,    Execution time    0.5 s
 Computed (i,k=0) for time point           23 / 30,    Execution time    0.5 s
 Computed (i,k=0) for time point           24 / 30,    Execution time    0.5 s
 Computed (i,k=0) for time point           25 / 30,    Execution time    0.5 s
 Computed (i,k=0) for time point           26 / 30,    Execution time    0.5 s
 Computed (i,k=0) for time point           27 / 30,    Execution time    0.5 s
 Computed (i,k=0) for time point           28 / 30,    Execution time    0.5 s
 Computed (i,k=0) for time point           29 / 30,    Execution time    0.5 s
 Computed (i,k=0) for time point           30 / 30,    Execution time    0.5 s
 
 Computed W(i,k) for k-point batch           1 /  1,    Execution time    3.0 s
 
 Computed ^x(k=0),                                      Execution time    0.6 s
 
 Computed ^c(i,k=0) for time point          1 / 30,    Execution time    0.7 s
 Computed ^c(i,k=0) for time point          2 / 30,    Execution time    0.7 s
 Computed ^c(i,k=0) for time point          3 / 30,    Execution time    0.7 s
 Computed ^c(i,k=0) for time point          4 / 30,    Execution time    0.7 s
 Computed ^c(i,k=0) for time point          5 / 30,    Execution time    0.7 s
 Computed ^c(i,k=0) for time point          6 / 30,    Execution time    0.7 s
 Computed ^c(i,k=0) for time point          7 / 30,    Execution time    0.7 s
 Computed ^c(i,k=0) for time point          8 / 30,    Execution time    0.7 s
 Computed ^c(i,k=0) for time point          9 / 30,    Execution time    0.7 s
 Computed ^c(i,k=0) for time point         10 / 30,    Execution time    0.7 s
 Computed ^c(i,k=0) for time point         11 / 30,    Execution time    0.7 s
 Computed ^c(i,k=0) for time point         12 / 30,    Execution time    0.7 s
 Computed ^c(i,k=0) for time point         13 / 30,    Execution time    0.7 s
 Computed ^c(i,k=0) for time point         14 / 30,    Execution time    0.7 s
 Computed ^c(i,k=0) for time point         15 / 30,    Execution time    0.7 s
 Computed ^c(i,k=0) for time point         16 / 30,    Execution time    0.7 s
 Computed ^c(i,k=0) for time point         17 / 30,    Execution time    0.7 s
 Computed ^c(i,k=0) for time point         18 / 30,    Execution time    1.3 s
 Computed ^c(i,k=0) for time point         19 / 30,    Execution time    1.8 s
 Computed ^c(i,k=0) for time point         20 / 30,    Execution time    2.2 s
 Computed ^c(i,k=0) for time point         21 / 30,    Execution time    0.8 s
 Computed ^c(i,k=0) for time point         22 / 30,    Execution time    0.7 s
 Computed ^c(i,k=0) for time point         23 / 30,    Execution time    0.7 s
 Computed ^c(i,k=0) for time point         24 / 30,    Execution time    0.7 s
 Computed ^c(i,k=0) for time point         25 / 30,    Execution time    0.7 s
 Computed ^c(i,k=0) for time point         26 / 30,    Execution time    0.7 s
 Computed ^c(i,k=0) for time point         27 / 30,    Execution time    0.7 s
 Computed ^c(i,k=0) for time point         28 / 30,    Execution time    0.7 s
 Computed ^c(i,k=0) for time point         29 / 30,    Execution time    0.8 s
 Computed ^c(i,k=0) for time point         30 / 30,    Execution time    0.7 s
 
 Sparsity of ^c(i,k=0): Percentage of skipped atom pairs:                0.0 %
 Retaining nl_3c for RTBSE

 
 SCF valence band maximum (eV):                                           -7.283
 SCF conduction band minimum (eV):                                        -0.296
 SCF indirect band gap (eV):                                               6.987
 SCF direct band gap (eV):                                                 6.987
 
 G0W0 valence band maximum (eV):                                          -8.736
 G0W0 conduction band minimum (eV):                                        0.820
 G0W0 indirect band gap (eV):                                              9.555
 G0W0 direct band gap (eV):                                                9.555
 
 Hartree-Fock with SCF orbitals valence band maximum (eV):                -8.868
 Hartree-Fock with SCF orbitals conduction band minimum (eV)               1.346
 Hartree-Fock with SCF orbitals indirect band gap (eV):                   10.214
 Hartree-Fock with SCF orbitals direct band gap (eV):                     10.214

 ENERGY| Total FORCE_EVAL ( QS ) energy [a.u.]:             -231.990552357138995
 RTBSE| Approximate size of the 3c integrals                       0.16E+003 MiB
 
 /-----------------------------------------------------------------------------\
 |                                                                             |
 |                    Real Time Bethe-Salpeter Propagation                     |
 |                                                                             |
 \-----------------------------------------------------------------------------/
 
[...]
 flops   118 x   154 x   144             10467072       0.0%    100.0%      0.0%     
 flops   118 x   160 x   141             10648320       0.0%    100.0%      0.0%     
 flops   118 x   160 x   144             10874880       0.0%    100.0%      0.0%     
 flops    95 x   128 x   141             13716480       0.0%    100.0%      0.0%     
 flops    95 x   128 x   144             14008320       0.0%    100.0%      0.0%     
 flops     9 x     9 x    32             14587776       0.0%    100.0%      0.0%     
 flops   118 x   128 x   141             17037312       0.0%    100.0%      0.0%     
 flops   118 x   128 x   144             17399808       0.0%    100.0%      0.0%     
 flops   144 x   154 x   141             25014528       0.0%    100.0%      0.0%     
 flops   144 x   154 x   144             25546752       0.0%    100.0%      0.0%     
 flops   144 x   160 x   141             25989120       0.0%    100.0%      0.0%     
 flops   144 x   160 x   144             26542080       0.0%    100.0%      0.0%     
 flops     9 x     9 x    64             29175552       0.0%    100.0%      0.0%     
 flops    23 x     9 x    32             31954176       0.0%    100.0%      0.0%     
 flops     9 x    23 x    32             31954176       0.0%    100.0%      0.0%     
 flops   144 x   128 x   141             41582592       0.0%    100.0%      0.0%     
 flops   144 x   128 x   144             42467328       0.0%    100.0%      0.0%     
 flops    23 x     9 x    64             63908352       0.0%    100.0%      0.0%     
 flops     9 x    23 x    64             63908352       0.0%    100.0%      0.0%     
 flops    23 x    23 x    32             95270784       0.0%    100.0%      0.0%     
 flops    23 x    23 x    64            190541568       0.0%    100.0%      0.0%     
 flops inhomo. stacks                           0       0.0%      0.0%      0.0%
 flops total                       891.686736E+06       0.0%    100.0%      0.0%
 flops max/rank                     67.809408E+06       0.0%    100.0%      0.0%
 matmuls inhomo. stacks                         0       0.0%      0.0%      0.0%
 matmuls total                              21000       0.0%    100.0%      0.0%
 number of processed stacks                 11620       0.0%    100.0%      0.0%
 average stack size                                     0.0       1.8       0.0
 marketing flops                   474.121280E+06
 -------------------------------------------------------------------------------
 # multiplications                             68
 max memory usage/rank               1.924493E+09
 # max total images/rank                        1
 # max 3D layers                                1
 # MPI messages exchanged                    6528
 MPI messages size (bytes):
  total size                       134.149824E+06
  min size                          11.776000E+03
  max size                         184.320000E+03
  average size                      20.549912E+03
 MPI breakdown and total messages size (bytes):
             size <=      128                   0                        0
       128 < size <=     8192                   0                        0
      8192 < size <=    32768                6432                118554624
     32768 < size <=   131072                   0                        0
    131072 < size <=  4194304                  96                 15595200
   4194304 < size <= 16777216                   0                        0
  16777216 < size                               0                        0
 -------------------------------------------------------------------------------
 -                                                                             -
 -                      DBCSR MESSAGE PASSING PERFORMANCE                      -
 -                                                                             -
 -------------------------------------------------------------------------------
 ROUTINE             CALLS      AVE VOLUME [Bytes]
 MP_Bcast               39                     12.
 MP_Allreduce          642                     11.
 MP_Alltoall          6856                  24066.
 MP_ISend             1088                   8938.
 MP_IRecv             1088                   7362.
 -------------------------------------------------------------------------------

 -------------------------------------------------------------------------------
 -                                                                             -
 -                                DBM STATISTICS                               -
 -                                                                             -
 -------------------------------------------------------------------------------
    M  x    N  x    K                                          COUNT     PERCENT
    ?  x    ?  x    ?                                        8584704      50.00%
   ??  x  ???  x   ??                                        1368576       7.97%
   ??  x   ??  x  ???                                         925344       5.39%
  ???  x    ?  x    ?                                         692064       4.03%
  ???  x    ?  x   ??                                         692064       4.03%
  ???  x   ??  x    ?                                         692064       4.03%
  ???  x   ??  x   ??                                         692064       4.03%
   ??  x   ??  x   ??                                         611712       3.56%
    ?  x    ?  x  ???                                         458784       2.67%
    ?  x   ??  x  ???                                         458784       2.67%
   ??  x    ?  x  ???                                         458784       2.67%
 >999  x    ?  x    ?                                         230688       1.34%
 >999  x    ?  x   ??                                         230688       1.34%
 >999  x   ??  x    ?                                         230688       1.34%
 >999  x   ??  x   ??                                         230688       1.34%
    ?  x    ?  x >999                                         152928       0.89%
    ?  x   ??  x >999                                         152928       0.89%
   ??  x    ?  x >999                                         152928       0.89%
   ??  x   ??  x >999                                         152928       0.89%
 -------------------------------------------------------------------------------

 -------------------------------------------------------------------------------
 -                                                                             -
 -                                GRID STATISTICS                              -
 -                                                                             -
 -------------------------------------------------------------------------------
 LP    KERNEL             BACKEND                              COUNT     PERCENT
 1     collocate ortho    CPU                                 121176      17.69%
 1     integrate ortho    CPU                                 121176      17.69%
 2     collocate ortho    CPU                                  89760      13.10%
 2     integrate ortho    CPU                                  89760      13.10%
 0     collocate ortho    CPU                                  79968      11.67%
 0     integrate ortho    CPU                                  79968      11.67%
 3     collocate ortho    CPU                                  32640       4.76%
 3     integrate ortho    CPU                                  32640       4.76%
 2     collocate general  CPU                                  13056       1.91%
 2     integrate general  CPU                                  13056       1.91%
 4     collocate ortho    CPU                                   5712       0.83%
 4     integrate ortho    CPU                                   5712       0.83%
 0     collocate general  CPU                                    192       0.03%
 0     integrate general  CPU                                    192       0.03%
 -------------------------------------------------------------------------------

 MEMORY| Estimated peak process memory [MiB]                                1853

 -------------------------------------------------------------------------------
 ----                             MULTIGRID INFO                            ----
 -------------------------------------------------------------------------------
 count for grid        1:         116598          cutoff [a.u.]          300.00
 count for grid        2:          20770          cutoff [a.u.]          100.00
 count for grid        3:          20764          cutoff [a.u.]           33.33
 count for grid        4:          11942          cutoff [a.u.]           11.11
 total gridlevel count  :         170074

 -------------------------------------------------------------------------------
 -                                                                             -
 -                         MESSAGE PASSING PERFORMANCE                         -
 -                                                                             -
 -------------------------------------------------------------------------------

 ROUTINE             CALLS      AVE VOLUME [Bytes]
 MP_Group             5039
 MP_Bcast             4630                   8392.
 MP_Allreduce        10820                   3853.
 MP_Sync              5569
 MP_Alltoall          4866               25732385.
 MP_SendRecv          2040                 337600.
 MP_ISendRecv         4110                 174087.
 MP_Wait             18799
 MP_comm_split        2834
 MP_ISend            30133                 560210.
 MP_IRecv            29325                 573932.
 -------------------------------------------------------------------------------


 -------------------------------------------------------------------------------
 -                                                                             -
 -                           R E F E R E N C E S                               -
 -                                                                             -
 -------------------------------------------------------------------------------
 
 CP2K version 2024.3 (Development Version), the CP2K developers group (2024).
 CP2K is freely available from https://www.cp2k.org/ .
 
 M. Graml, K. Zollner, D. Hernangmez-Prez, P. E. Faria Junior, J. Wilhelm.
 J. Chem. Theory Comput. 20, 2202-2208 (2024).
 Low-scaling GW algorithm applied to twisted transition-metal dichalcogenide 
 heterobilayers.
 https://doi.org/10.1021/acs.jctc.3c01230

 T. D. Kuehne, M. Iannuzzi, M. Del Ben, V. V. Rybkin, P. Seewald, F. Stein, T. 
 Laino, R. Z. Khaliullin, O. Schuett, F. Schiffmann, D. Golze, J. Wilhelm, S. 
 Chulkov, M. H. Bani-Hashemian, V. Weber, U. Borstnik, M. Taillefumier, A. S. 
 Jakobovits, A. Lazzaro, H. Pabst, T. Mueller, R. Schade, M. Guidon, S. 
 Andermatt, N. Holmberg, G. K. Schenter, A. Hehn, A. Bussy, F. Belleflamme, G. 
 Tabacchi, A. Gloess, M. Lass, I. Bethune, C. J. Mundy, C. Plessl, M. Watkins, 
 J. VandeVondele, M. Krack, J. Hutter.
 J. Chem. Phys. 152, 194103 (2020).
 CP2K: An electronic structure and molecular dynamics software package - 
 Quickstep: Efficient and accurate electronic structure calculations.
 https://doi.org/10.1063/5.0007045

 O. Schuett, P. Messmer, J. Hutter, J. VandeVondele.
 Electronic Structure Calculations on Graphics Processing Units, 173-190 (2016).
 GPU-Accelerated Sparse Matrix-Matrix Multiplication for Linear Scaling Density 
 Functional Theory.
 https://doi.org/10.1002/9781118670712.ch8

 A. Heinecke, G. Henry, M. Hutchinson, H. Pabst.
 Proceedings of Intl. Supercomputing Conference, 981-991 (2016).
 LIBXSMM: Accelerating Small Matrix Multiplications by Runtime Code Generation.
 https://doi.org/10.1109/SC.2016.83

 J. Hutter, M. Iannuzzi, F. Schiffmann, J. VandeVondele.
 WIREs Comput Mol Sci. 4, 15-25 (2014).
 CP2K: atomistic simulations of condensed matter systems.
 https://doi.org/10.1002/wcms.1159

 U. Borstnik, J. VandeVondele, V. Weber, J. Hutter.
 Parallel Comput. 40, 47-58 (2014).
 Sparse matrix multiplication: The distributed block-compressed sparse row 
 library.
 https://doi.org/10.1016/j.parco.2014.03.012

 M. Guidon, J. Hutter, J. VandeVondele.
 J. Chem. Theory Comput. 5, 3010-3021 (2009).
 Robust Periodic Hartree-Fock Exchange for Large-Scale Simulations Using 
 Gaussian Basis Sets.
 https://doi.org/10.1021/ct900494g

 M. Guidon, F. Schiffmann, J. Hutter, J. VandeVondele.
 J. Chem. Phys. 128, 214104 (2008).
 Ab initio molecular dynamics using hybrid density functionals.
 https://doi.org/10.1063/1.2931945

 L. Genovese, T. Deutsch, S. Goedecker.
 J. Chem. Phys. 127, 054704 (2007).
 Efficient and accurate three-dimensional Poisson solver for surface problems.
 https://doi.org/10.1063/1.2754685

 L. Genovese, T. Deutsch, A. Neelov, S. Goedecker, G. Beylkin.
 J. Chem. Phys. 125, 074105 (2006).
 Efficient solution of Poisson's equation with free boundary conditions.
 https://doi.org/10.1063/1.2335442

 M. Frigo, S. G. Johnson.
 Proc. IEEE 93, 216-231 (2005).
 The design and implementation of FFTW3.
 https://doi.org/10.1109/JPROC.2004.840301

 M. Krack, M. Parrinello.
 Phys. Chem. Chem. Phys. 2, 2105-2112 (2000).
 All-electron ab-initio molecular dynamics.
 https://doi.org/10.1039/b001167n

 G. Lippert, J. Hutter, M. Parrinello.
 Theor. Chem. Acc. 103, 124-140 (1999).
 The Gaussian and augmented-plane-wave density functional method for ab initio 
 molecular dynamics simulations.
 https://doi.org/10.1007/s002140050523

 J. P. Perdew, K. Burke, M. Ernzerhof.
 Phys. Rev. Lett. 77, 3865-3868 (1996).
 Generalized gradient approximation made simple.
 https://doi.org/10.1103/PhysRevLett.77.3865


 -------------------------------------------------------------------------------
 -                                                                             -
 -                                T I M I N G                                  -
 -                                                                             -
 -------------------------------------------------------------------------------
 SUBROUTINE                       CALLS  ASD         SELF TIME        TOTAL TIME
                                MAXIMUM       AVERAGE  MAXIMUM  AVERAGE  MAXIMUM
 CP2K                                 1  1.0    0.023    0.027  287.653  287.653
 run_propagation_bse                  1  2.0    0.002    0.007  286.899  286.900
 qs_energies                          1  3.0    0.000    0.001  272.315  272.332
 scf_env_do_scf                       1  4.0    0.000    0.000  221.787  221.791
 scf_env_do_scf_inner_loop           67  5.0    0.002    0.004  221.787  221.791
 qs_ks_build_kohn_sham_matrix        68  8.0    0.011    0.012  177.731  177.733
 qs_ks_update_qs_env                 67  6.0    0.000    0.001  176.285  176.286
 rebuild_ks_matrix                   67  7.0    0.000    0.000  176.281  176.282
 fft_wrap_pw1pw2                   1419 11.0    0.032    0.036  114.582  119.792
 fft_wrap_pw1pw2_300               1011 12.1    4.962    5.226  111.234  116.409
 fft3d_ps                          1419 13.0   47.035   47.783   89.188   94.625
 qs_vxc_create                       68  9.0    0.001    0.001   73.548   73.549
 xc_vxc_pw_create                    67 10.0    1.030    1.093   73.547   73.548
 pw_poisson_solve                    68  9.0    1.578    1.647   56.537   56.582
 xc_pw_derive                       402 12.0    0.006    0.006   50.942   56.031
 qs_energies_properties               1  4.0    0.000    0.000   49.657   49.674
 post_scf_bandstructure               1  5.0    0.000    0.000   49.657   49.674
 gw                                   1  6.0    0.000    0.000   49.611   49.612
 gw_calc_large_cell_Gamma             1  7.0    0.000    0.000   43.918   44.318
 xc_rho_set_and_dset_create          67 11.0    0.833    0.904   38.181   40.993
 xc_pw_divergence                    67 11.0    0.003    0.004   33.878   38.913
 ps_wavelet_solve                    68 10.0   27.851   28.624   31.647   31.696
 dbt_total                          871  9.0    0.006    0.006   28.343   28.344
 qs_rho_update_rho_low               68  6.0    0.001    0.001   26.393   26.395
 calculate_rho_elec                  68  7.0    0.809    0.821   26.326   26.328
 dbt_contract                       414  8.9    0.022    0.023   25.813   25.853
 mp_alltoall_z22v                  1419 15.0   19.482   24.763   19.482   24.763
 get_Sigma_c                          1  8.0    0.001    0.002   24.670   24.671
 yz_to_x                            677 13.8    8.147    8.561   19.030   23.930
 x_to_yz                            742 14.1   14.505   14.872   23.103   23.289
 dbt_tas_multiply                   828 11.4    0.002    0.002   23.128   23.195
 dbt_tas_total                      828 12.4    0.115    0.130   23.066   23.066
 density_rs2pw                       68  8.0    0.004    0.004   21.171   21.347
 compute_3c_integrals               153  9.6    0.003    0.003   19.254   19.255
 build_3c_integrals                 157 10.5   15.976   17.459   18.106   19.086
 gspace_mixing                       66  6.0    0.786    0.797   18.771   18.771
 get_mat_chi_Gamma_tau                1  8.0    0.001    0.002   15.190   15.592
 contract_to_Sigma                   61  9.0    0.001    0.001   14.998   14.999
 sum_up_and_integrate                68  9.0    0.001    0.002   14.572   14.590
 integrate_v_rspace                  68 10.0    0.002    0.002   14.221   14.262
 potential_pw2rs                     68 11.0    0.040    0.045   13.555   13.595
 xc_functional_eval                 335 11.4    0.001    0.001   10.794   13.515
 pbe_lda_eval                       335 12.4   10.793   13.514   10.793   13.514
 update_effective_ham                18  3.0    0.001    0.001   12.527   13.257
 dbt_tas_dbm                        828 13.4    0.003    0.003   11.798   11.798
 prepare_gapw_den                    68  9.0    0.001    0.001   11.531   11.697
 dbm_multiply                       828 15.4   11.336   11.504   11.336   11.504
 put_rho0_on_grid                    68 10.0    0.826    0.853   11.260   11.426
 get_sigma                           57  4.0    0.002    0.002   10.798   10.798
 broyden_mixing                      66  7.0   10.422   10.541   10.561   10.605
 pw_scatter_p                       742 13.1    8.570    8.717    8.570    8.717
 pw_gather_p                        677 12.8    7.551    8.245    7.551    8.245
 hfx_ks_matrix                       68  9.0    0.002    0.003    7.641    7.677
 integrate_four_center               68 10.0    1.508    1.644    7.627    7.665
 transfer_pw2rs                     341 11.6    0.005    0.006    7.519    7.552
 mp_waitany                        8200 12.5    6.750    6.925    6.750    6.925
 pw_derive                          606 12.3    6.605    6.801    6.605    6.801
 compute_3c_and_contract_W           31  9.0    0.000    0.000    6.555    6.566
 transfer_rs2pw                     341  9.4    0.005    0.006    6.413    6.554
 create_and_init_bs_env_for_gw        1  7.0    0.000    0.000    5.693    6.103
 transfer_pw2rs_300                 137 12.0    2.206    2.258    5.903    5.963
 -------------------------------------------------------------------------------

 The number of warnings for this run is : 4
 
 -------------------------------------------------------------------------------
  **** **** ******  **  PROGRAM ENDED AT                 2024-12-02 15:58:37.424
 ***** ** ***  *** **   PROGRAM RAN ON                              i01r03c01s08
 **    ****   ******    PROGRAM RAN BY                                   di75qec
 ***** **    ** ** **   PROGRAM PROCESS ID                                132818
  **** **  *******  **  PROGRAM STOPPED IN /hppfs/scratch/09/di75qec/Benzene_scf
                                           .4142570
