 DBCSR| CPU Multiplication driver                                           XSMM (U)
 DBCSR| Multrec recursion limit                                              512 (U)
 DBCSR| Multiplication stack size                                           1000 (D)
 DBCSR| Maximum elements for images                                    UNLIMITED (U)
 DBCSR| Multiplicative factor virtual images                                   1 (U)
 DBCSR| Use multiplication densification                                       T (D)
 DBCSR| Multiplication size stacks                                             3 (U)
 DBCSR| Use memory pool for CPU allocation                                     F (U)
 DBCSR| Number of 3D layers                                               SINGLE (U)
 DBCSR| Use MPI memory allocation                                              F (U)
 DBCSR| Use RMA algorithm                                                      F (U)
 DBCSR| Use Communication thread                                               T (U)
 DBCSR| Communication thread load                                             83 (D)
 DBCSR| MPI: My process id                                                     0
 DBCSR| MPI: Number of processes                                             144
 DBCSR| OMP: Current number of threads                                         2
 DBCSR| OMP: Max number of threads                                             2
 DBCSR| Split modifier for TAS multiplication algorithm                  1.0E+00 (U)


  **** **** ******  **  PROGRAM STARTED AT               2025-02-03 17:55:10.775
 ***** ** ***  *** **   PROGRAM STARTED ON                          i04r03c04s09
 **    ****   ******    PROGRAM STARTED BY                               di75qec
 ***** **    ** ** **   PROGRAM PROCESS ID                               2877197
  **** **  *******  **  PROGRAM STARTED IN /hppfs/scratch/09/di75qec/Octatetraen
                                           e_scf.4268466

 CP2K| version string:                 CP2K version 2025.1 (Development Version)
 CP2K| source code revision number:                                  git:699dff0
 CP2K| cp2kflags: omp libint fftw3 libxc parallel scalapack xsmm max_contr=4    
 CP2K| is freely available from                            https://www.cp2k.org/
 CP2K| Program compiled at                       Thu 30 Jan 2025 05:51:40 PM CET
 CP2K| Program compiled on                                               login01
 CP2K| Program compiled for                                        Supermuc-foss
 CP2K| Data directory path               /dss/dsshome1/09/di75qec/CP2K-foss/data
 CP2K| Input file name                                                   scf.inp

 GLOBAL| Force Environment number                                              1
 GLOBAL| Basis set file name                                         aug-cc-pvtz
 GLOBAL| Potential file name                                      ALL_POTENTIALS
 GLOBAL| MM Potential file name                                     MM_POTENTIAL
 GLOBAL| Coordinate file name                                          coord.xyz
 GLOBAL| Method name                                                        CP2K
 GLOBAL| Project name                                               Octatetraene
 GLOBAL| Run type                                                         ENERGY
 GLOBAL| FFT library                                                       FFTW3
 GLOBAL| Diagonalization library                                       ScaLAPACK
 GLOBAL| DGEMM library                                                      BLAS
 GLOBAL| Orthonormality check for eigenvectors                          DISABLED
 GLOBAL| Matrix multiplication library                                 ScaLAPACK
 GLOBAL| All-to-all communication in single precision                          F
 GLOBAL| FFTs using library dependent lengths                                  F
 GLOBAL| Grid backend                                                       AUTO
 GLOBAL| Global print level                                               MEDIUM
 GLOBAL| MPI I/O enabled                                                       T
 GLOBAL| Total number of message passing processes                           144
 GLOBAL| Number of threads for this process                                    2
 GLOBAL| This output is from process                                           0
 GLOBAL| OpenMP stack size per thread (OMP_STACKSIZE)                    default
 GLOBAL| CPU model name             Intel(R) Xeon(R) Platinum 8174 CPU @ 3.10GHz
 GLOBAL| CPUID                                                              1003
 GLOBAL| Compiled for CPUID                                                    0

 *** HINT in environment.F:928 :: The compiler target flags (generic) used ***
 *** to build this binary cannot exploit all extensions of this CPU model  ***
 *** (x86_avx512). Consider compiler target flags as part of FCFLAGS and   ***
 *** CFLAGS (ARCH file).                                                   ***


 MEMORY| system memory details [Kb]
 MEMORY|                        rank 0           min           max       average
 MEMORY| MemTotal             98436664      98436664      98436712      98436679
 MEMORY| MemFree              82312148      82247672      82659052      82450702
 MEMORY| Buffers                     0             0             0             0
 MEMORY| Cached                2454012       2443400       2470708       2457419
 MEMORY| Slab                  1232388       1202376       1235324       1226717
 MEMORY| SReclaimable           263712        260564        271484        265806
 MEMORY| MemLikelyFree        85029872      84967024      85363016      85173928


 *** Fundamental physical constants (SI units) ***

 *** Literature: B. J. Mohr and B. N. Taylor,
 ***             CODATA recommended values of the fundamental physical
 ***             constants: 2006, Web Version 5.1
 ***             http://physics.nist.gov/constants

 Speed of light in vacuum [m/s]                             2.99792458000000E+08
 Magnetic constant or permeability of vacuum [N/A**2]       1.25663706143592E-06
 Electric constant or permittivity of vacuum [F/m]          8.85418781762039E-12
 Planck constant (h) [J*s]                                  6.62606896000000E-34
 Planck constant (h-bar) [J*s]                              1.05457162825177E-34
 Elementary charge [C]                                      1.60217648700000E-19
 Electron mass [kg]                                         9.10938215000000E-31
 Electron g factor [ ]                                     -2.00231930436220E+00
 Proton mass [kg]                                           1.67262163700000E-27
 Fine-structure constant                                    7.29735253760000E-03
 Rydberg constant [1/m]                                     1.09737315685270E+07
 Avogadro constant [1/mol]                                  6.02214179000000E+23
 Boltzmann constant [J/K]                                   1.38065040000000E-23
 Atomic mass unit [kg]                                      1.66053878200000E-27
 Bohr radius [m]                                            5.29177208590000E-11

 *** Conversion factors ***

 [u] -> [a.u.]                                              1.82288848426455E+03
 [Angstrom] -> [Bohr] = [a.u.]                              1.88972613288564E+00
 [a.u.] = [Bohr] -> [Angstrom]                              5.29177208590000E-01
 [a.u.] -> [s]                                              2.41888432650478E-17
 [a.u.] -> [fs]                                             2.41888432650478E-02
 [a.u.] -> [J]                                              4.35974393937059E-18
 [a.u.] -> [N]                                              8.23872205491840E-08
 [a.u.] -> [K]                                              3.15774647902944E+05
 [a.u.] -> [kJ/mol]                                         2.62549961709828E+03
 [a.u.] -> [kcal/mol]                                       6.27509468713739E+02
 [a.u.] -> [Pa]                                             2.94210107994716E+13
 [a.u.] -> [bar]                                            2.94210107994716E+08
 [a.u.] -> [atm]                                            2.90362800883016E+08
 [a.u.] -> [eV]                                             2.72113838565563E+01
 [a.u.] -> [Hz]                                             6.57968392072181E+15
 [a.u.] -> [1/cm] (wave numbers)                            2.19474631370540E+05
 [a.u./Bohr**2] -> [1/cm]                                   5.14048714338585E+03
 

 CELL_TOP| Volume [angstrom^3]:                                      8000.000000
 CELL_TOP| Vector a [angstrom    20.000     0.000     0.000   |a| =    20.000000
 CELL_TOP| Vector b [angstrom     0.000    20.000     0.000   |b| =    20.000000
 CELL_TOP| Vector c [angstrom     0.000     0.000    20.000   |c| =    20.000000
 CELL_TOP| Angle (b,c), alpha [degree]:                                90.000000
 CELL_TOP| Angle (a,c), beta  [degree]:                                90.000000
 CELL_TOP| Angle (a,b), gamma [degree]:                                90.000000
 CELL_TOP| Numerically orthorhombic:                                         YES
 CELL_TOP| Periodicity                                                      NONE

 GENERATE|  Preliminary Number of Bonds generated:                             0
 GENERATE|  Achieved consistency in connectivity generation.

 CELL| Volume [angstrom^3]:                                          8000.000000
 CELL| Vector a [angstrom]:      20.000     0.000     0.000   |a| =    20.000000
 CELL| Vector b [angstrom]:       0.000    20.000     0.000   |b| =    20.000000
 CELL| Vector c [angstrom]:       0.000     0.000    20.000   |c| =    20.000000
 CELL| Angle (b,c), alpha [degree]:                                    90.000000
 CELL| Angle (a,c), beta  [degree]:                                    90.000000
 CELL| Angle (a,b), gamma [degree]:                                    90.000000
 CELL| Numerically orthorhombic:                                             YES
 CELL| Periodicity                                                          NONE

 CELL_REF| Volume [angstrom^3]:                                      8000.000000
 CELL_REF| Vector a [angstrom    20.000     0.000     0.000   |a| =    20.000000
 CELL_REF| Vector b [angstrom     0.000    20.000     0.000   |b| =    20.000000
 CELL_REF| Vector c [angstrom     0.000     0.000    20.000   |c| =    20.000000
 CELL_REF| Angle (b,c), alpha [degree]:                                90.000000
 CELL_REF| Angle (a,c), beta  [degree]:                                90.000000
 CELL_REF| Angle (a,b), gamma [degree]:                                90.000000
 CELL_REF| Numerically orthorhombic:                                         YES
 CELL_REF| Periodicity                                                      NONE

 *******************************************************************************
 *******************************************************************************
 **                                                                           **
 **     #####                         ##              ##                      **
 **    ##   ##            ##          ##              ##                      **
 **   ##     ##                       ##            ######                    **
 **   ##     ##  ##   ##  ##   #####  ##  ##   ####   ##    #####    #####    **
 **   ##     ##  ##   ##  ##  ##      ## ##   ##      ##   ##   ##  ##   ##   **
 **   ##  ## ##  ##   ##  ##  ##      ####     ###    ##   ######   ######    **
 **    ##  ###   ##   ##  ##  ##      ## ##      ##   ##   ##       ##        **
 **     #######   #####   ##   #####  ##  ##  ####    ##    #####   ##        **
 **           ##                                                    ##        **
 **                                                                           **
 **                                                ... make the atoms dance   **
 **                                                                           **
 **            Copyright (C) by CP2K developers group (2000-2025)             **
 **                      J. Chem. Phys. 152, 194103 (2020)                    **
 **                                                                           **
 *******************************************************************************

 DFT| Spin restricted Kohn-Sham (RKS) calculation                            RKS
 DFT| Multiplicity                                                             1
 DFT| Number of spin states                                                    1
 DFT| Charge                                                                   0
 DFT| Self-interaction correction (SIC)                                       NO
 DFT| Cutoffs: density                                              1.000000E-10
 DFT|          gradient                                             1.000000E-10
 DFT|          tau                                                  1.000000E-10
 DFT|          cutoff_smoothing_range                               0.000000E+00
 DFT| XC density smoothing                                                  NONE
 DFT| XC derivatives                                                          PW

 FUNCTIONAL| PBE:
 FUNCTIONAL| J.P.Perdew, K.Burke, M.Ernzerhof, Phys. Rev. Letter, vol. 77, n 18,
 FUNCTIONAL|  pp. 3865-3868, (1996)sx=0.750sc=1.000{spin unpolarized}           


 QS| Method:                                                                GAPW
 QS| Density plane wave grid type                        NON-SPHERICAL FULLSPACE
 QS| Number of grid levels:                                                    4
 QS| Density cutoff [a.u.]:                                                300.0
 QS| Multi grid cutoff [a.u.]: 1) grid level                               300.0
 QS|                           2) grid level                               100.0
 QS|                           3) grid level                                33.3
 QS|                           4) grid level                                11.1
 QS| Grid level progression factor:                                          3.0
 QS| Relative density cutoff [a.u.]:                                        30.0
 QS| Interaction thresholds: eps_pgf_orb:                                1.0E-05
 QS|                         eps_filter_matrix:                          0.0E+00
 QS|                         eps_core_charge:                            1.0E-12
 QS|                         eps_rho_gspace:                             1.0E-10
 QS|                         eps_rho_rspace:                             1.0E-10
 QS|                         eps_gvg_rspace:                             1.0E-05
 QS|                         eps_ppl:                                    1.0E-02
 QS|                         eps_ppnl:                                   1.0E-07
 QS| GAPW|      One center basis from orbital basis primitives
 QS| GAPW|                   eps_fit:                                    1.0E-04
 QS| GAPW|                   eps_iso:                                    1.0E-12
 QS| GAPW|                   eps_svd:                                    1.0E-08
 QS| GAPW|                   eps_cpc:                                    1.0E-10
 QS| GAPW|   atom-r-grid: quadrature:                                     GC_LOG
 QS| GAPW|      atom-s-grid:  max l :                                          6
 QS| GAPW|      max_l_rho0 :                                                   2


 ATOMIC KIND INFORMATION

  1. Atomic kind: H                                     Number of atoms:      10

     Orbital Basis Set                                               aug-cc-pvtz

       Number of orbital shell sets:                                           6
       Number of orbital shells:                                               9
       Number of primitive Cartesian functions:                               11
       Number of Cartesian basis functions:                                   25
       Number of spherical basis functions:                                   23
       Norm type:                                                              2

       Normalised Cartesian orbitals:

                        Set   Shell   Orbital            Exponent    Coefficient

                          1       1    1s               33.870000       0.000000
                                                         5.095000       0.000000
                                                         1.159000       0.000000
                                                         0.325800       0.307343
                                                         0.102700       0.000000

                          1       2    2s               33.870000       0.060718
                                                         5.095000       0.109507
                                                         1.159000       0.161468
                                                         0.325800       0.154871
                                                         0.102700       0.049575

                          1       3    3s               33.870000       0.000000
                                                         5.095000       0.000000
                                                         1.159000       0.000000
                                                         0.325800       0.000000
                                                         0.102700       0.129297

                          2       1    1s                0.025260       0.045158

                          3       1    1px               1.407000       2.184277
                                                         0.388000       0.000000
                          3       1    1py               1.407000       2.184277
                                                         0.388000       0.000000
                          3       1    1pz               1.407000       2.184277
                                                         0.388000       0.000000

                          3       2    2px               1.407000       0.000000
                                                         0.388000       0.436495
                          3       2    2py               1.407000       0.000000
                                                         0.388000       0.436495
                          3       2    2pz               1.407000       0.000000
                                                         0.388000       0.436495

                          4       1    1px               0.102000       0.082166
                          4       1    1py               0.102000       0.082166
                          4       1    1pz               0.102000       0.082166

                          5       1    1dx2              1.057000       1.813597
                          5       1    1dxy              1.057000       3.141241
                          5       1    1dxz              1.057000       3.141241
                          5       1    1dy2              1.057000       1.813597
                          5       1    1dyz              1.057000       3.141241
                          5       1    1dz2              1.057000       1.813597

                          6       1    1dx2              0.247000       0.142439
                          6       1    1dxy              0.247000       0.246712
                          6       1    1dxz              0.247000       0.246712
                          6       1    1dy2              0.247000       0.142439
                          6       1    1dyz              0.247000       0.246712
                          6       1    1dz2              0.247000       0.142439

     RI Auxiliary Basis Set                                    aug-cc-pvqz-rifit

       Number of orbital shell sets:                                          20
       Number of orbital shells:                                              20
       Number of primitive Cartesian functions:                               20
       Number of Cartesian basis functions:                                  105
       Number of spherical basis functions:                                   80
       Norm type:                                                              2

       Normalised Cartesian orbitals:

                        Set   Shell   Orbital            Exponent    Coefficient

                          1       1    1s               21.883534       7.211045

                          2       1    1s                4.308910       2.131502

                          3       1    1s                1.182483       0.808177

                          4       1    1s                0.433111       0.380504

                          5       1    1s                0.227635       0.234877

                          6       1    1s                0.099711       0.126464

                          7       1    1px               3.228653       6.169030
                          7       1    1py               3.228653       6.169030
                          7       1    1pz               3.228653       6.169030

                          8       1    1px               1.228568       1.843695
                          8       1    1py               1.228568       1.843695
                          8       1    1pz               1.228568       1.843695

                          9       1    1px               0.516293       0.623822
                          9       1    1py               0.516293       0.623822
                          9       1    1pz               0.516293       0.623822

                         10       1    1px               0.224508       0.220283
                         10       1    1py               0.224508       0.220283
                         10       1    1pz               0.224508       0.220283

                         11       1    1px               0.094445       0.074630
                         11       1    1py               0.094445       0.074630
                         11       1    1pz               0.094445       0.074630

                         12       1    1dx2              2.778181       9.839891
                         12       1    1dxy              2.778181      17.043192
                         12       1    1dxz              2.778181      17.043192
                         12       1    1dy2              2.778181       9.839891
                         12       1    1dyz              2.778181      17.043192
                         12       1    1dz2              2.778181       9.839891

                         13       1    1dx2              1.017710       1.697272
                         13       1    1dxy              1.017710       2.939762
                         13       1    1dxz              1.017710       2.939762
                         13       1    1dy2              1.017710       1.697272
                         13       1    1dyz              1.017710       2.939762
                         13       1    1dz2              1.017710       1.697272

                         14       1    1dx2              0.527598       0.537577
                         14       1    1dxy              0.527598       0.931110
                         14       1    1dxz              0.527598       0.931110
                         14       1    1dy2              0.527598       0.537577
                         14       1    1dyz              0.527598       0.931110
                         14       1    1dz2              0.527598       0.537577

                         15       1    1dx2              0.306504       0.207813
                         15       1    1dxy              0.306504       0.359942
                         15       1    1dxz              0.306504       0.359942
                         15       1    1dy2              0.306504       0.207813
                         15       1    1dyz              0.306504       0.359942
                         15       1    1dz2              0.306504       0.207813

                         16       1    1fx3              1.896433       6.213178
                         16       1    1fx2y             1.896433      13.893089
                         16       1    1fx2z             1.896433      13.893089
                         16       1    1fxy2             1.896433      13.893089
                         16       1    1fxyz             1.896433      24.063536
                         16       1    1fxz2             1.896433      13.893089
                         16       1    1fy3              1.896433       6.213178
                         16       1    1fy2z             1.896433      13.893089
                         16       1    1fyz2             1.896433      13.893089
                         16       1    1fz3              1.896433       6.213178

                         17       1    1fx3              0.671931       0.601776
                         17       1    1fx2y             0.671931       1.345612
                         17       1    1fx2z             0.671931       1.345612
                         17       1    1fxy2             0.671931       1.345612
                         17       1    1fxyz             0.671931       2.330669
                         17       1    1fxz2             0.671931       1.345612
                         17       1    1fy3              0.671931       0.601776
                         17       1    1fy2z             0.671931       1.345612
                         17       1    1fyz2             0.671931       1.345612
                         17       1    1fz3              0.671931       0.601776

                         18       1    1fx3              0.447954       0.241674
                         18       1    1fx2y             0.447954       0.540399
                         18       1    1fx2z             0.447954       0.540399
                         18       1    1fxy2             0.447954       0.540399
                         18       1    1fxyz             0.447954       0.935998
                         18       1    1fxz2             0.447954       0.540399
                         18       1    1fy3              0.447954       0.241674
                         18       1    1fy2z             0.447954       0.540399
                         18       1    1fyz2             0.447954       0.540399
                         18       1    1fz3              0.447954       0.241674

                         19       1    1gx4              2.130883       8.911979
                         19       1    1gx3y             2.130883      23.578879
                         19       1    1gx3z             2.130883      23.578879
                         19       1    1gx2y2            2.130883      30.440202
                         19       1    1gx2yz            2.130883      52.723977
                         19       1    1gx2z2            2.130883      30.440202
                         19       1    1gxy3             2.130883      23.578879
                         19       1    1gxy2z            2.130883      52.723977
                         19       1    1gxyz2            2.130883      52.723977
                         19       1    1gxz3             2.130883      23.578879
                         19       1    1gy4              2.130883       8.911979
                         19       1    1gy3z             2.130883      23.578879
                         19       1    1gy2z2            2.130883      30.440202
                         19       1    1gyz3             2.130883      23.578879
                         19       1    1gz4              2.130883       8.911979

                         20       1    1gx4              0.595628       0.267680
                         20       1    1gx3y             0.595628       0.708216
                         20       1    1gx3z             0.595628       0.708216
                         20       1    1gx2y2            0.595628       0.914303
                         20       1    1gx2yz            0.595628       1.583619
                         20       1    1gx2z2            0.595628       0.914303
                         20       1    1gxy3             0.595628       0.708216
                         20       1    1gxy2z            0.595628       1.583619
                         20       1    1gxyz2            0.595628       1.583619
                         20       1    1gxz3             0.595628       0.708216
                         20       1    1gy4              0.595628       0.267680
                         20       1    1gy3z             0.595628       0.708216
                         20       1    1gy2z2            0.595628       0.914303
                         20       1    1gyz3             0.595628       0.708216
                         20       1    1gz4              0.595628       0.267680

       Atomic covalent radius [Angstrom]:                                  0.320

       Atomic van der Waals radius [Angstrom]:                             1.090

     The atoms of this atomic kind are PAW atoms (GAPW):
       Hard Gaussian function radius:                                      1.200
       Rho0 radius:                                                        1.200
       Maximum GTO radius used for PAW projector construction:            24.566

     GAPW Soft Basis Set                                        aug-cc-pvtz_soft

       Number of orbital shell sets:                                           6
       Number of orbital shells:                                               9
       Number of primitive Cartesian functions:                               10
       Number of Cartesian basis functions:                                   25
       Number of spherical basis functions:                                   23
       Norm type:                                                              2

       Normalised Cartesian orbitals:

                        Set   Shell   Orbital            Exponent    Coefficient

                          1       1    1s                5.095000       0.000000
                                                         1.159000       0.000000
                                                         0.325800       0.307343
                                                         0.102700       0.000000

                          1       2    2s                5.095000       0.109507
                                                         1.159000       0.161468
                                                         0.325800       0.154871
                                                         0.102700       0.049575

                          1       3    3s                5.095000       0.000000
                                                         1.159000       0.000000
                                                         0.325800       0.000000
                                                         0.102700       0.129297

                          2       1    1s                0.025260       0.045158

                          3       1    1px               1.407000       2.184277
                                                         0.388000       0.000000
                          3       1    1py               1.407000       2.184277
                                                         0.388000       0.000000
                          3       1    1pz               1.407000       2.184277
                                                         0.388000       0.000000

                          3       2    2px               1.407000       0.000000
                                                         0.388000       0.436495
                          3       2    2py               1.407000       0.000000
                                                         0.388000       0.436495
                          3       2    2pz               1.407000       0.000000
                                                         0.388000       0.436495

                          4       1    1px               0.102000       0.082166
                          4       1    1py               0.102000       0.082166
                          4       1    1pz               0.102000       0.082166

                          5       1    1dx2              1.057000       1.813597
                          5       1    1dxy              1.057000       3.141241
                          5       1    1dxz              1.057000       3.141241
                          5       1    1dy2              1.057000       1.813597
                          5       1    1dyz              1.057000       3.141241
                          5       1    1dz2              1.057000       1.813597

                          6       1    1dx2              0.247000       0.142439
                          6       1    1dxy              0.247000       0.246712
                          6       1    1dxz              0.247000       0.246712
                          6       1    1dy2              0.247000       0.142439
                          6       1    1dyz              0.247000       0.246712
                          6       1    1dz2              0.247000       0.142439

     AE Potential information for                                            ALL

       Description:                                       All-electron potential
                                          Krack, Parrinello, PCCP 2, 2105 (2000)

       Gaussian exponent of the core charge distribution:              12.500000
       Electronic configuration (s p d ...):                           1   0   0

  2. Atomic kind: C                                     Number of atoms:       8

     Orbital Basis Set                                               aug-cc-pvtz

       Number of orbital shell sets:                                           8
       Number of orbital shells:                                              14
       Number of primitive Cartesian functions:                               22
       Number of Cartesian basis functions:                                   55
       Number of spherical basis functions:                                   46
       Norm type:                                                              2

       Normalised Cartesian orbitals:

                        Set   Shell   Orbital            Exponent    Coefficient

                          1       1    1s             8236.000000       0.327184
                                                      1235.000000       0.609945
                                                       280.800000       1.030914
                                                        79.270000       1.549802
                                                        25.590000       1.904111
                                                         8.997000       1.608326
                                                         3.319000       0.606601
                                                         0.905900       0.026060
                                                         0.364300      -0.003002
                                                         0.128500       0.000365

                          1       2    2s             8236.000000       0.000000
                                                      1235.000000       0.000000
                                                       280.800000       0.000000
                                                        79.270000       0.000000
                                                        25.590000       0.000000
                                                         8.997000       0.000000
                                                         3.319000       0.000000
                                                         0.905900       0.661790
                                                         0.364300       0.000000
                                                         0.128500       0.000000

                          1       3    3s             8236.000000      -0.069627
                                                      1235.000000      -0.130363
                                                       280.800000      -0.221954
                                                        79.270000      -0.343330
                                                        25.590000      -0.452153
                                                         8.997000      -0.469816
                                                         3.319000      -0.298547
                                                         0.905900       0.092903
                                                         0.364300       0.200079
                                                         0.128500       0.060480

                          1       4    4s             8236.000000       0.000000
                                                      1235.000000       0.000000
                                                       280.800000       0.000000
                                                        79.270000       0.000000
                                                        25.590000       0.000000
                                                         8.997000       0.000000
                                                         3.319000       0.000000
                                                         0.905900       0.000000
                                                         0.364300       0.000000
                                                         0.128500       0.152963

                          2       1    1s                0.044020       0.068493

                          3       1    1px              18.710000       0.000000
                                                         4.133000       0.000000
                                                         1.200000       0.000000
                                                         0.382700       0.429055
                                                         0.120900       0.000000
                          3       1    1py              18.710000       0.000000
                                                         4.133000       0.000000
                                                         1.200000       0.000000
                                                         0.382700       0.429055
                                                         0.120900       0.000000
                          3       1    1pz              18.710000       0.000000
                                                         4.133000       0.000000
                                                         1.200000       0.000000
                                                         0.382700       0.429055
                                                         0.120900       0.000000

                          3       2    2px              18.710000       0.778253
                                                         4.133000       0.729662
                                                         1.200000       0.519563
                                                         0.382700       0.214960
                                                         0.120900       0.034896
                          3       2    2py              18.710000       0.778253
                                                         4.133000       0.729662
                                                         1.200000       0.519563
                                                         0.382700       0.214960
                                                         0.120900       0.034896
                          3       2    2pz              18.710000       0.778253
                                                         4.133000       0.729662
                                                         1.200000       0.519563
                                                         0.382700       0.214960
                                                         0.120900       0.034896

                          3       3    3px              18.710000       0.000000
                                                         4.133000       0.000000
                                                         1.200000       0.000000
                                                         0.382700       0.000000
                                                         0.120900       0.101619
                          3       3    3py              18.710000       0.000000
                                                         4.133000       0.000000
                                                         1.200000       0.000000
                                                         0.382700       0.000000
                                                         0.120900       0.101619
                          3       3    3pz              18.710000       0.000000
                                                         4.133000       0.000000
                                                         1.200000       0.000000
                                                         0.382700       0.000000
                                                         0.120900       0.101619

                          4       1    1px               0.035690       0.022112
                          4       1    1py               0.035690       0.022112
                          4       1    1pz               0.035690       0.022112

                          5       1    1dx2              1.097000       1.935401
                                                         0.318000       0.000000
                          5       1    1dxy              1.097000       3.352214
                                                         0.318000       0.000000
                          5       1    1dxz              1.097000       3.352214
                                                         0.318000       0.000000
                          5       1    1dy2              1.097000       1.935401
                                                         0.318000       0.000000
                          5       1    1dyz              1.097000       3.352214
                                                         0.318000       0.000000
                          5       1    1dz2              1.097000       1.935401
                                                         0.318000       0.000000

                          5       2    2dx2              1.097000       0.000000
                                                         0.318000       0.221644
                          5       2    2dxy              1.097000       0.000000
                                                         0.318000       0.383899
                          5       2    2dxz              1.097000       0.000000
                                                         0.318000       0.383899
                          5       2    2dy2              1.097000       0.000000
                                                         0.318000       0.221644
                          5       2    2dyz              1.097000       0.000000
                                                         0.318000       0.383899
                          5       2    2dz2              1.097000       0.000000
                                                         0.318000       0.221644

                          6       1    1dx2              0.100000       0.029269
                          6       1    1dxy              0.100000       0.050696
                          6       1    1dxz              0.100000       0.050696
                          6       1    1dy2              0.100000       0.029269
                          6       1    1dyz              0.100000       0.050696
                          6       1    1dz2              0.100000       0.029269

                          7       1    1fx3              0.761000       0.796288
                          7       1    1fx2y             0.761000       1.780553
                          7       1    1fx2z             0.761000       1.780553
                          7       1    1fxy2             0.761000       1.780553
                          7       1    1fxyz             0.761000       3.084008
                          7       1    1fxz2             0.761000       1.780553
                          7       1    1fy3              0.761000       0.796288
                          7       1    1fy2z             0.761000       1.780553
                          7       1    1fyz2             0.761000       1.780553
                          7       1    1fz3              0.761000       0.796288

                          8       1    1fx3              0.268000       0.076078
                          8       1    1fx2y             0.268000       0.170115
                          8       1    1fx2z             0.268000       0.170115
                          8       1    1fxy2             0.268000       0.170115
                          8       1    1fxyz             0.268000       0.294648
                          8       1    1fxz2             0.268000       0.170115
                          8       1    1fy3              0.268000       0.076078
                          8       1    1fy2z             0.268000       0.170115
                          8       1    1fyz2             0.268000       0.170115
                          8       1    1fz3              0.268000       0.076078

     RI Auxiliary Basis Set                                    aug-cc-pvqz-rifit

       Number of orbital shell sets:                                          36
       Number of orbital shells:                                              36
       Number of primitive Cartesian functions:                               36
       Number of Cartesian basis functions:                                  237
       Number of spherical basis functions:                                  168
       Norm type:                                                              2

       Normalised Cartesian orbitals:

                        Set   Shell   Orbital            Exponent    Coefficient

                          1       1    1s              221.309708      40.894080

                          2       1    1s               47.118566      12.817524

                          3       1    1s                9.171527       3.756136

                          4       1    1s                4.179168       2.083183

                          5       1    1s                1.639209       1.032490

                          6       1    1s                0.872371       0.643333

                          7       1    1s                0.489646       0.417178

                          8       1    1s                0.249261       0.251421

                          9       1    1s                0.091582       0.118650

                         10       1    1px              49.862265     188.866569
                         10       1    1py              49.862265     188.866569
                         10       1    1pz              49.862265     188.866569

                         11       1    1px              12.325982      32.920544
                         11       1    1py              12.325982      32.920544
                         11       1    1pz              12.325982      32.920544

                         12       1    1px               3.590642       7.045394
                         12       1    1py               3.590642       7.045394
                         12       1    1pz               3.590642       7.045394

                         13       1    1px               1.688444       2.743459
                         13       1    1py               1.688444       2.743459
                         13       1    1pz               1.688444       2.743459

                         14       1    1px               1.053382       1.521151
                         14       1    1py               1.053382       1.521151
                         14       1    1pz               1.053382       1.521151

                         15       1    1px               0.517168       0.625144
                         15       1    1py               0.517168       0.625144
                         15       1    1pz               0.517168       0.625144

                         16       1    1px               0.245452       0.246262
                         16       1    1py               0.245452       0.246262
                         16       1    1pz               0.245452       0.246262

                         17       1    1px               0.104572       0.084764
                         17       1    1py               0.104572       0.084764
                         17       1    1pz               0.104572       0.084764

                         18       1    1dx2             16.935434     232.703555
                         18       1    1dxy             16.935434     403.054381
                         18       1    1dxz             16.935434     403.054381
                         18       1    1dy2             16.935434     232.703555
                         18       1    1dyz             16.935434     403.054381
                         18       1    1dz2             16.935434     232.703555

                         19       1    1dx2              5.640287      33.977119
                         19       1    1dxy              5.640287      58.850096
                         19       1    1dxz              5.640287      58.850096
                         19       1    1dy2              5.640287      33.977119
                         19       1    1dyz              5.640287      58.850096
                         19       1    1dz2              5.640287      33.977119

                         20       1    1dx2              2.204215       6.563024
                         20       1    1dxy              2.204215      11.367491
                         20       1    1dxz              2.204215      11.367491
                         20       1    1dy2              2.204215       6.563024
                         20       1    1dyz              2.204215      11.367491
                         20       1    1dz2              2.204215       6.563024

                         21       1    1dx2              1.031012       1.736286
                         21       1    1dxy              1.031012       3.007336
                         21       1    1dxz              1.031012       3.007336
                         21       1    1dy2              1.031012       1.736286
                         21       1    1dyz              1.031012       3.007336
                         21       1    1dz2              1.031012       1.736286

                         22       1    1dx2              0.599456       0.672178
                         22       1    1dxy              0.599456       1.164246
                         22       1    1dxz              0.599456       1.164246
                         22       1    1dy2              0.599456       0.672178
                         22       1    1dyz              0.599456       1.164246
                         22       1    1dz2              0.599456       0.672178

                         23       1    1dx2              0.352145       0.264955
                         23       1    1dxy              0.352145       0.458916
                         23       1    1dxz              0.352145       0.458916
                         23       1    1dy2              0.352145       0.264955
                         23       1    1dyz              0.352145       0.458916
                         23       1    1dz2              0.352145       0.264955

                         24       1    1dx2              0.140520       0.053083
                         24       1    1dxy              0.140520       0.091942
                         24       1    1dxz              0.140520       0.091942
                         24       1    1dy2              0.140520       0.053083
                         24       1    1dyz              0.140520       0.091942
                         24       1    1dz2              0.140520       0.053083

                         25       1    1fx3              5.448411      66.766969
                         25       1    1fx2y             5.448411     149.295482
                         25       1    1fx2z             5.448411     149.295482
                         25       1    1fxy2             5.448411     149.295482
                         25       1    1fxyz             5.448411     258.587361
                         25       1    1fxz2             5.448411     149.295482
                         25       1    1fy3              5.448411      66.766969
                         25       1    1fy2z             5.448411     149.295482
                         25       1    1fyz2             5.448411     149.295482
                         25       1    1fz3              5.448411      66.766969

                         26       1    1fx3              2.263014       9.246997
                         26       1    1fx2y             2.263014      20.676914
                         26       1    1fx2z             2.263014      20.676914
                         26       1    1fxy2             2.263014      20.676914
                         26       1    1fxyz             2.263014      35.813466
                         26       1    1fxz2             2.263014      20.676914
                         26       1    1fy3              2.263014       9.246997
                         26       1    1fy2z             2.263014      20.676914
                         26       1    1fyz2             2.263014      20.676914
                         26       1    1fz3              2.263014       9.246997

                         27       1    1fx3              1.738978       5.112301
                         27       1    1fx2y             1.738978      11.431452
                         27       1    1fx2z             1.738978      11.431452
                         27       1    1fxy2             1.738978      11.431452
                         27       1    1fxyz             1.738978      19.799856
                         27       1    1fxz2             1.738978      11.431452
                         27       1    1fy3              1.738978       5.112301
                         27       1    1fy2z             1.738978      11.431452
                         27       1    1fyz2             1.738978      11.431452
                         27       1    1fz3              1.738978       5.112301

                         28       1    1fx3              0.729795       0.724697
                         28       1    1fx2y             0.729795       1.620471
                         28       1    1fx2z             0.729795       1.620471
                         28       1    1fxy2             0.729795       1.620471
                         28       1    1fxyz             0.729795       2.806738
                         28       1    1fxz2             0.729795       1.620471
                         28       1    1fy3              0.729795       0.724697
                         28       1    1fy2z             0.729795       1.620471
                         28       1    1fyz2             0.729795       1.620471
                         28       1    1fz3              0.729795       0.724697

                         29       1    1fx3              0.348633       0.137494
                         29       1    1fx2y             0.348633       0.307445
                         29       1    1fx2z             0.348633       0.307445
                         29       1    1fxy2             0.348633       0.307445
                         29       1    1fxyz             0.348633       0.532510
                         29       1    1fxz2             0.348633       0.307445
                         29       1    1fy3              0.348633       0.137494
                         29       1    1fy2z             0.348633       0.307445
                         29       1    1fyz2             0.348633       0.307445
                         29       1    1fz3              0.348633       0.137494

                         30       1    1fx3              0.158837       0.023447
                         30       1    1fx2y             0.158837       0.052430
                         30       1    1fx2z             0.158837       0.052430
                         30       1    1fxy2             0.158837       0.052430
                         30       1    1fxyz             0.158837       0.090811
                         30       1    1fxz2             0.158837       0.052430
                         30       1    1fy3              0.158837       0.023447
                         30       1    1fy2z             0.158837       0.052430
                         30       1    1fyz2             0.158837       0.052430
                         30       1    1fz3              0.158837       0.023447

                         31       1    1gx4              2.812776      19.123049
                         31       1    1gx3y             2.812776      50.594833
                         31       1    1gx3z             2.812776      50.594833
                         31       1    1gx2y2            2.812776      65.317648
                         31       1    1gx2yz            2.812776     113.133486
                         31       1    1gx2z2            2.812776      65.317648
                         31       1    1gxy3             2.812776      50.594833
                         31       1    1gxy2z            2.812776     113.133486
                         31       1    1gxyz2            2.812776     113.133486
                         31       1    1gxz3             2.812776      50.594833
                         31       1    1gy4              2.812776      19.123049
                         31       1    1gy3z             2.812776      50.594833
                         31       1    1gy2z2            2.812776      65.317648
                         31       1    1gyz3             2.812776      50.594833
                         31       1    1gz4              2.812776      19.123049

                         32       1    1gx4              1.349558       2.537826
                         32       1    1gx3y             1.349558       6.714456
                         32       1    1gx3z             1.349558       6.714456
                         32       1    1gx2y2            1.349558       8.668326
                         32       1    1gx2yz            1.349558      15.013981
                         32       1    1gx2z2            1.349558       8.668326
                         32       1    1gxy3             1.349558       6.714456
                         32       1    1gxy2z            1.349558      15.013981
                         32       1    1gxyz2            1.349558      15.013981
                         32       1    1gxz3             1.349558       6.714456
                         32       1    1gy4              1.349558       2.537826
                         32       1    1gy3z             1.349558       6.714456
                         32       1    1gy2z2            1.349558       8.668326
                         32       1    1gyz3             1.349558       6.714456
                         32       1    1gz4              1.349558       2.537826

                         33       1    1gx4              0.713257       0.439402
                         33       1    1gx3y             0.713257       1.162547
                         33       1    1gx3z             0.713257       1.162547
                         33       1    1gx2y2            0.713257       1.500842
                         33       1    1gx2yz            0.713257       2.599535
                         33       1    1gx2z2            0.713257       1.500842
                         33       1    1gxy3             0.713257       1.162547
                         33       1    1gxy2z            0.713257       2.599535
                         33       1    1gxyz2            0.713257       2.599535
                         33       1    1gxz3             0.713257       1.162547
                         33       1    1gy4              0.713257       0.439402
                         33       1    1gy3z             0.713257       1.162547
                         33       1    1gy2z2            0.713257       1.500842
                         33       1    1gyz3             0.713257       1.162547
                         33       1    1gz4              0.713257       0.439402

                         34       1    1gx4              0.324359       0.050322
                         34       1    1gx3y             0.324359       0.133139
                         34       1    1gx3z             0.324359       0.133139
                         34       1    1gx2y2            0.324359       0.171882
                         34       1    1gx2yz            0.324359       0.297709
                         34       1    1gx2z2            0.324359       0.171882
                         34       1    1gxy3             0.324359       0.133139
                         34       1    1gxy2z            0.324359       0.297709
                         34       1    1gxyz2            0.324359       0.297709
                         34       1    1gxz3             0.324359       0.133139
                         34       1    1gy4              0.324359       0.050322
                         34       1    1gy3z             0.324359       0.133139
                         34       1    1gy2z2            0.324359       0.171882
                         34       1    1gyz3             0.324359       0.133139
                         34       1    1gz4              0.324359       0.050322

                         35       1    1hx5              1.486936       2.693359
                         35       1    1hx4y             1.486936       8.080076
                         35       1    1hx4z             1.486936       8.080076
                         35       1    1hx3y2            1.486936      12.342519
                         35       1    1hx3yz            1.486936      21.377871
                         35       1    1hx3z2            1.486936      12.342519
                         35       1    1hx2y3            1.486936      12.342519
                         35       1    1hx2y2z           1.486936      27.598712
                         35       1    1hx2yz2           1.486936      27.598712
                         35       1    1hx2z3            1.486936      12.342519
                         35       1    1hxy4             1.486936       8.080076
                         35       1    1hxy3z            1.486936      21.377871
                         35       1    1hxy2z2           1.486936      27.598712
                         35       1    1hxyz3            1.486936      21.377871
                         35       1    1hxz4             1.486936       8.080076
                         35       1    1hy5              1.486936       2.693359
                         35       1    1hy4z             1.486936       8.080076
                         35       1    1hy3z2            1.486936      12.342519
                         35       1    1hy2z3            1.486936      12.342519
                         35       1    1hyz4             1.486936       8.080076
                         35       1    1hz5              1.486936       2.693359

                         36       1    1hx5              0.659348       0.191632
                         36       1    1hx4y             0.659348       0.574895
                         36       1    1hx4z             0.659348       0.574895
                         36       1    1hx3y2            0.659348       0.878167
                         36       1    1hx3yz            0.659348       1.521030
                         36       1    1hx3z2            0.659348       0.878167
                         36       1    1hx2y3            0.659348       0.878167
                         36       1    1hx2y2z           0.659348       1.963641
                         36       1    1hx2yz2           0.659348       1.963641
                         36       1    1hx2z3            0.659348       0.878167
                         36       1    1hxy4             0.659348       0.574895
                         36       1    1hxy3z            0.659348       1.521030
                         36       1    1hxy2z2           0.659348       1.963641
                         36       1    1hxyz3            0.659348       1.521030
                         36       1    1hxz4             0.659348       0.574895
                         36       1    1hy5              0.659348       0.191632
                         36       1    1hy4z             0.659348       0.574895
                         36       1    1hy3z2            0.659348       0.878167
                         36       1    1hy2z3            0.659348       0.878167
                         36       1    1hyz4             0.659348       0.574895
                         36       1    1hz5              0.659348       0.191632

       Atomic covalent radius [Angstrom]:                                  0.770

       Atomic van der Waals radius [Angstrom]:                             1.700

     The atoms of this atomic kind are PAW atoms (GAPW):
       Hard Gaussian function radius:                                      1.512
       Rho0 radius:                                                        1.512
       Maximum GTO radius used for PAW projector construction:            24.566

     GAPW Soft Basis Set                                        aug-cc-pvtz_soft

       Number of orbital shell sets:                                           8
       Number of orbital shells:                                              14
       Number of primitive Cartesian functions:                               15
       Number of Cartesian basis functions:                                   55
       Number of spherical basis functions:                                   46
       Norm type:                                                              2

       Normalised Cartesian orbitals:

                        Set   Shell   Orbital            Exponent    Coefficient

                          1       1    1s                3.319000       0.606601
                                                         0.905900       0.026060
                                                         0.364300      -0.003002
                                                         0.128500       0.000365

                          1       2    2s                3.319000       0.000000
                                                         0.905900       0.661790
                                                         0.364300       0.000000
                                                         0.128500       0.000000

                          1       3    3s                3.319000      -0.298547
                                                         0.905900       0.092903
                                                         0.364300       0.200079
                                                         0.128500       0.060480

                          1       4    4s                3.319000       0.000000
                                                         0.905900       0.000000
                                                         0.364300       0.000000
                                                         0.128500       0.152963

                          2       1    1s                0.044020       0.068493

                          3       1    1px               4.133000       0.000000
                                                         1.200000       0.000000
                                                         0.382700       0.429055
                                                         0.120900       0.000000
                          3       1    1py               4.133000       0.000000
                                                         1.200000       0.000000
                                                         0.382700       0.429055
                                                         0.120900       0.000000
                          3       1    1pz               4.133000       0.000000
                                                         1.200000       0.000000
                                                         0.382700       0.429055
                                                         0.120900       0.000000

                          3       2    2px               4.133000       0.729662
                                                         1.200000       0.519563
                                                         0.382700       0.214960
                                                         0.120900       0.034896
                          3       2    2py               4.133000       0.729662
                                                         1.200000       0.519563
                                                         0.382700       0.214960
                                                         0.120900       0.034896
                          3       2    2pz               4.133000       0.729662
                                                         1.200000       0.519563
                                                         0.382700       0.214960
                                                         0.120900       0.034896

                          3       3    3px               4.133000       0.000000
                                                         1.200000       0.000000
                                                         0.382700       0.000000
                                                         0.120900       0.101619
                          3       3    3py               4.133000       0.000000
                                                         1.200000       0.000000
                                                         0.382700       0.000000
                                                         0.120900       0.101619
                          3       3    3pz               4.133000       0.000000
                                                         1.200000       0.000000
                                                         0.382700       0.000000
                                                         0.120900       0.101619

                          4       1    1px               0.035690       0.022112
                          4       1    1py               0.035690       0.022112
                          4       1    1pz               0.035690       0.022112

                          5       1    1dx2              1.097000       1.935401
                                                         0.318000       0.000000
                          5       1    1dxy              1.097000       3.352214
                                                         0.318000       0.000000
                          5       1    1dxz              1.097000       3.352214
                                                         0.318000       0.000000
                          5       1    1dy2              1.097000       1.935401
                                                         0.318000       0.000000
                          5       1    1dyz              1.097000       3.352214
                                                         0.318000       0.000000
                          5       1    1dz2              1.097000       1.935401
                                                         0.318000       0.000000

                          5       2    2dx2              1.097000       0.000000
                                                         0.318000       0.221644
                          5       2    2dxy              1.097000       0.000000
                                                         0.318000       0.383899
                          5       2    2dxz              1.097000       0.000000
                                                         0.318000       0.383899
                          5       2    2dy2              1.097000       0.000000
                                                         0.318000       0.221644
                          5       2    2dyz              1.097000       0.000000
                                                         0.318000       0.383899
                          5       2    2dz2              1.097000       0.000000
                                                         0.318000       0.221644

                          6       1    1dx2              0.100000       0.029269
                          6       1    1dxy              0.100000       0.050696
                          6       1    1dxz              0.100000       0.050696
                          6       1    1dy2              0.100000       0.029269
                          6       1    1dyz              0.100000       0.050696
                          6       1    1dz2              0.100000       0.029269

                          7       1    1fx3              0.761000       0.796288
                          7       1    1fx2y             0.761000       1.780553
                          7       1    1fx2z             0.761000       1.780553
                          7       1    1fxy2             0.761000       1.780553
                          7       1    1fxyz             0.761000       3.084008
                          7       1    1fxz2             0.761000       1.780553
                          7       1    1fy3              0.761000       0.796288
                          7       1    1fy2z             0.761000       1.780553
                          7       1    1fyz2             0.761000       1.780553
                          7       1    1fz3              0.761000       0.796288

                          8       1    1fx3              0.268000       0.076078
                          8       1    1fx2y             0.268000       0.170115
                          8       1    1fx2z             0.268000       0.170115
                          8       1    1fxy2             0.268000       0.170115
                          8       1    1fxyz             0.268000       0.294648
                          8       1    1fxz2             0.268000       0.170115
                          8       1    1fy3              0.268000       0.076078
                          8       1    1fy2z             0.268000       0.170115
                          8       1    1fyz2             0.268000       0.170115
                          8       1    1fz3              0.268000       0.076078

     AE Potential information for                                            ALL

       Description:                                       All-electron potential
                                          Krack, Parrinello, PCCP 2, 2105 (2000)

       Gaussian exponent of the core charge distribution:               4.109048
       Electronic configuration (s p d ...):                           4   2   0


 MOLECULE KIND INFORMATION


 All atoms are their own molecule, skipping detailed information


 TOTAL NUMBERS AND MAXIMUM NUMBERS

  Total number of            - Atomic kinds:                                   2
                             - Atoms:                                         18
                             - Shell sets:                                   124
                             - Shells:                                       202
                             - Primitive Cartesian functions:                286
                             - Cartesian basis functions:                    690
                             - Spherical basis functions:                    598

  Maximum angular momentum of the orbital basis functions:                     3


 MODULE QUICKSTEP: ATOMIC COORDINATES IN ANGSTROM

   Atom Kind Element         X             Y             Z       Z(eff)     Mass
      1    1 H     1     10.971328     11.220141      9.999999   1.0000   1.0079
      2    1 H     1      9.028672      8.779859      9.999999   1.0000   1.0079
      3    1 H     1      7.901910     10.984719      9.999999   1.0000   1.0079
      4    1 H     1     12.098090      9.015281      9.999999   1.0000   1.0079
      5    1 H     1      9.853116     13.418505      9.999999   1.0000   1.0079
      6    1 H     1     10.146884      6.581495      9.999999   1.0000   1.0079
      7    1 H     1      7.806527     14.766086      9.999999   1.0000   1.0079
      8    1 H     1     12.193473      5.233914      9.999999   1.0000   1.0079
      9    1 H     1      6.774302     13.230501     10.000001   1.0000   1.0079
     10    1 H     1     13.225698      6.769499      9.999999   1.0000   1.0079
     11    2 C     6     10.000000     10.721498      9.999999   6.0000  12.0107
     12    2 C     6     10.000000      9.278502      9.999999   6.0000  12.0107
     13    2 C     6     11.125020      8.520477      9.999999   6.0000  12.0107
     14    2 C     6      8.874980     11.479523      9.999999   6.0000  12.0107
     15    2 C     6     11.121077      7.071188      9.999999   6.0000  12.0107
     16    2 C     6      8.878923     12.928812      9.999999   6.0000  12.0107
     17    2 C     6     12.237388      6.317718      9.999999   6.0000  12.0107
     18    2 C     6      7.762612     13.682282      9.999999   6.0000  12.0107



 SCF PARAMETERS         Density guess:                                   RESTART
                        --------------------------------------------------------
                        max_scf:                                             200
                        max_scf_history:                                       0
                        max_diis:                                              4
                        --------------------------------------------------------
                        eps_scf:                                        1.00E-07
                        eps_scf_history:                                0.00E+00
                        eps_diis:                                       1.00E-01
                        eps_eigval:                                     1.00E-05
                        --------------------------------------------------------
                        level_shift [a.u.]:                             0.000000
                        added MOs                                       569    0
                        --------------------------------------------------------
                        Mixing method:                            BROYDEN_MIXING
                                                charge density mixing in g-space
                        --------------------------------------------------------
                        No outer SCF

 PW_GRID| Information for grid number                                          1
[...]
 Computed ^c(i,k=0) for time point         26 / 30,    Execution time   19.4 s
 Computed ^c(i,k=0) for time point         27 / 30,    Execution time   19.4 s
 Computed ^c(i,k=0) for time point         28 / 30,    Execution time   19.4 s
 Computed ^c(i,k=0) for time point         29 / 30,    Execution time   19.6 s
 Computed ^c(i,k=0) for time point         30 / 30,    Execution time   19.5 s
 
 Sparsity of ^c(i,k=0): Percentage of skipped atom pairs:                0.0 %

 
 SCF valence band maximum (eV):                                           -5.898
 SCF conduction band minimum (eV):                                        -1.841
 SCF indirect band gap (eV):                                               4.057
 SCF direct band gap (eV):                                                 4.057
 
 G0W0 valence band maximum (eV):                                          -7.501
 G0W0 conduction band minimum (eV):                                       -0.304
 G0W0 indirect band gap (eV):                                              7.198
 G0W0 direct band gap (eV):                                                7.198
 
 Hartree-Fock with SCF orbitals valence band maximum (eV):                -6.971
 Hartree-Fock with SCF orbitals conduction band minimum (eV)               1.121
 Hartree-Fock with SCF orbitals indirect band gap (eV):                    8.092
 Hartree-Fock with SCF orbitals direct band gap (eV):                      8.092

 ENERGY| Total FORCE_EVAL ( QS ) energy [hartree]           -310.521297425446505

 -------------------------------------------------------------------------------
 -                                                                             -
 -                                DBCSR STATISTICS                             -
 -                                                                             -
 -------------------------------------------------------------------------------
 COUNTER                                    TOTAL       BLAS       SMM       ACC
 flops    23 x    32 x    23              3385600       0.0%    100.0%      0.0%     
 flops    46 x    32 x    23              5416960       0.0%    100.0%      0.0%     
 flops    23 x    32 x    46              5416960       0.0%    100.0%      0.0%     
 flops    46 x    32 x    46              8667136       0.0%    100.0%      0.0%     
 flops    23 x    23 x    54              9426780       0.0%    100.0%      0.0%     
 flops    23 x    46 x    54             13711680       0.0%    100.0%      0.0%     
 flops    46 x    23 x    54             13711680       0.0%    100.0%      0.0%     
 flops    46 x    46 x    54             24681024       0.0%    100.0%      0.0%     
 flops    23 x    23 x    32             27931200       0.0%    100.0%      0.0%     
 flops    23 x    46 x    32             40627200       0.0%    100.0%      0.0%     
 flops    46 x    23 x    32             40627200       0.0%    100.0%      0.0%     
 flops    23 x    23 x    64             67034880       0.0%    100.0%      0.0%     
 flops    46 x    46 x    32             73128960       0.0%    100.0%      0.0%     
 flops    23 x    46 x    64             97505280       0.0%    100.0%      0.0%     
 flops    46 x    23 x    64             97505280       0.0%    100.0%      0.0%     
 flops    46 x    46 x    64            175509504       0.0%    100.0%      0.0%     
 flops inhomo. stacks                           0       0.0%      0.0%      0.0%
 flops total                       704.287324E+06       0.0%    100.0%      0.0%
 flops max/rank                     13.286364E+06       0.0%    100.0%      0.0%
 matmuls inhomo. stacks                         0       0.0%      0.0%      0.0%
 matmuls total                               6480       0.0%    100.0%      0.0%
 number of processed stacks                  5549       0.0%    100.0%      0.0%
 average stack size                                     0.0       1.2       0.0
 marketing flops                    82.964128E+06
 -------------------------------------------------------------------------------
 # multiplications                              4
 max memory usage/rank             975.900672E+06
 # max total images/rank                        1
 # max 3D layers                                1
 # MPI messages exchanged                   12672
 MPI messages size (bytes):
  total size                       221.968032E+06
  min size                           0.000000E+00
  max size                          38.088000E+03
  average size                      17.516416E+03
 MPI breakdown and total messages size (bytes):
             size <=      128                1452                        0
       128 < size <=     8192                   0                        0
      8192 < size <=    32768               10384                192312384
     32768 < size <=   131072                 836                 29655648
    131072 < size <=  4194304                   0                        0
   4194304 < size <= 16777216                   0                        0
  16777216 < size                               0                        0
 -------------------------------------------------------------------------------
 -                                                                             -
 -                      DBCSR MESSAGE PASSING PERFORMANCE                      -
 -                                                                             -
 -------------------------------------------------------------------------------
 ROUTINE             CALLS      AVE VOLUME [Bytes]
 MP_Bcast               17                     12.
 MP_Allreduce           76                     21.
 MP_Alltoall          3334                  92401.
 MP_ISend              192                   8370.
 MP_IRecv              192                   8002.
 -------------------------------------------------------------------------------

 -------------------------------------------------------------------------------
 -                                                                             -
 -                                DBM STATISTICS                               -
 -                                                                             -
 -------------------------------------------------------------------------------
    M  x    N  x    K                                          COUNT     PERCENT
    ?  x    ?  x    ?                                       22668559      50.00%
 >999  x   ??  x   ??                                       10812528      23.85%
   ??  x   ??  x >999                                        6868487      15.15%
   ??  x >999  x   ??                                         694400       1.53%
   ??  x >999  x  ???                                         555520       1.23%
  ???  x >999  x   ??                                         555520       1.23%
  ???  x >999  x  ???                                         444416       0.98%
   ??  x  ???  x  ???                                         415989       0.92%
   ??  x  ???  x >999                                         376320       0.83%
  ???  x   ??  x >999                                         376320       0.83%
  ???  x  ???  x  ???                                         332800       0.73%
   ??  x  ???  x   ??                                         310000       0.68%
  ???  x  ???  x >999                                         301056       0.66%
  ???  x  ???  x   ??                                         248000       0.55%
   ??  x   ??  x  ???                                         209942       0.46%
  ???  x   ??  x  ???                                         167993       0.37%
 -------------------------------------------------------------------------------

 -------------------------------------------------------------------------------
 -                                                                             -
 -                                GRID STATISTICS                              -
 -                                                                             -
 -------------------------------------------------------------------------------
 LP    KERNEL             BACKEND                              COUNT     PERCENT
 2     collocate ortho    CPU                                  16368      11.36%
 2     integrate ortho    CPU                                  16368      11.36%
 1     collocate ortho    CPU                                  15696      10.90%
 1     integrate ortho    CPU                                  15696      10.90%
 3     collocate ortho    CPU                                  11820       8.20%
 3     integrate ortho    CPU                                  11820       8.20%
 0     collocate ortho    CPU                                   9921       6.89%
 0     integrate ortho    CPU                                   9921       6.89%
 2     collocate general  CPU                                   7776       5.40%
 2     integrate general  CPU                                   7776       5.40%
 4     collocate ortho    CPU                                   5559       3.86%
 4     integrate ortho    CPU                                   5559       3.86%
 0     collocate general  CPU                                   2592       1.80%
 0     integrate general  CPU                                   2592       1.80%
 5     collocate ortho    CPU                                   1920       1.33%
 5     integrate ortho    CPU                                   1920       1.33%
 6     collocate ortho    CPU                                    381       0.26%
 6     integrate ortho    CPU                                    381       0.26%
 -------------------------------------------------------------------------------

 MEMORY| Estimated peak process memory [MiB]                                1839

 -------------------------------------------------------------------------------
 ----                             MULTIGRID INFO                            ----
 -------------------------------------------------------------------------------
 count for grid        1:        3118980          cutoff [a.u.]          300.00
 count for grid        2:         642506          cutoff [a.u.]          100.00
 count for grid        3:         509183          cutoff [a.u.]           33.33
 count for grid        4:         192450          cutoff [a.u.]           11.11
 total gridlevel count  :        4463119

 -------------------------------------------------------------------------------
 -                                                                             -
 -                         MESSAGE PASSING PERFORMANCE                         -
 -                                                                             -
 -------------------------------------------------------------------------------

 ROUTINE             CALLS      AVE VOLUME [Bytes]
 MP_Group             8212
 MP_Bcast             6454                  59791.
 MP_Allreduce        14276                    651.
 MP_Sync             11169
 MP_Alltoall          5481                  62862.
 MP_SendRecv           858                  38400.
 MP_ISendRecv         2002                  29446.
 MP_Wait              8112
 MP_comm_split        5334
 MP_ISend            19319                 480784.
 MP_IRecv            26189                 358197.
 -------------------------------------------------------------------------------


 -------------------------------------------------------------------------------
 -                                                                             -
 -                           R E F E R E N C E S                               -
 -                                                                             -
 -------------------------------------------------------------------------------
 
 CP2K version 2025.1 (Development Version), the CP2K developers group (2025).
 CP2K is freely available from https://www.cp2k.org/ .
 
 M. Graml, K. Zollner, D. Hernangmez-Prez, P. E. Faria Junior, J. Wilhelm.
 J. Chem. Theory Comput. 20, 2202-2208 (2024).
 Low-scaling GW algorithm applied to twisted transition-metal dichalcogenide 
 heterobilayers.
 https://doi.org/10.1021/acs.jctc.3c01230

 T. D. Kuehne, M. Iannuzzi, M. Del Ben, V. V. Rybkin, P. Seewald, F. Stein, T. 
 Laino, R. Z. Khaliullin, O. Schuett, F. Schiffmann, D. Golze, J. Wilhelm, S. 
 Chulkov, M. H. Bani-Hashemian, V. Weber, U. Borstnik, M. Taillefumier, A. S. 
 Jakobovits, A. Lazzaro, H. Pabst, T. Mueller, R. Schade, M. Guidon, S. 
 Andermatt, N. Holmberg, G. K. Schenter, A. Hehn, A. Bussy, F. Belleflamme, G. 
 Tabacchi, A. Gloess, M. Lass, I. Bethune, C. J. Mundy, C. Plessl, M. Watkins, 
 J. VandeVondele, M. Krack, J. Hutter.
 J. Chem. Phys. 152, 194103 (2020).
 CP2K: An electronic structure and molecular dynamics software package - 
 Quickstep: Efficient and accurate electronic structure calculations.
 https://doi.org/10.1063/5.0007045

 O. Schuett, P. Messmer, J. Hutter, J. VandeVondele.
 Electronic Structure Calculations on Graphics Processing Units, 173-190 (2016).
 GPU-Accelerated Sparse Matrix-Matrix Multiplication for Linear Scaling Density 
 Functional Theory.
 https://doi.org/10.1002/9781118670712.ch8

 A. Heinecke, G. Henry, M. Hutchinson, H. Pabst.
 Proceedings of Intl. Supercomputing Conference, 981-991 (2016).
 LIBXSMM: Accelerating Small Matrix Multiplications by Runtime Code Generation.
 https://doi.org/10.1109/SC.2016.83

 J. Hutter, M. Iannuzzi, F. Schiffmann, J. VandeVondele.
 WIREs Comput Mol Sci. 4, 15-25 (2014).
 CP2K: atomistic simulations of condensed matter systems.
 https://doi.org/10.1002/wcms.1159

 U. Borstnik, J. VandeVondele, V. Weber, J. Hutter.
 Parallel Comput. 40, 47-58 (2014).
 Sparse matrix multiplication: The distributed block-compressed sparse row 
 library.
 https://doi.org/10.1016/j.parco.2014.03.012

 M. Guidon, J. Hutter, J. VandeVondele.
 J. Chem. Theory Comput. 5, 3010-3021 (2009).
 Robust Periodic Hartree-Fock Exchange for Large-Scale Simulations Using 
 Gaussian Basis Sets.
 https://doi.org/10.1021/ct900494g

 M. Guidon, F. Schiffmann, J. Hutter, J. VandeVondele.
 J. Chem. Phys. 128, 214104 (2008).
 Ab initio molecular dynamics using hybrid density functionals.
 https://doi.org/10.1063/1.2931945

 L. Genovese, T. Deutsch, S. Goedecker.
 J. Chem. Phys. 127, 054704 (2007).
 Efficient and accurate three-dimensional Poisson solver for surface problems.
 https://doi.org/10.1063/1.2754685

 L. Genovese, T. Deutsch, A. Neelov, S. Goedecker, G. Beylkin.
 J. Chem. Phys. 125, 074105 (2006).
 Efficient solution of Poisson's equation with free boundary conditions.
 https://doi.org/10.1063/1.2335442

 M. Frigo, S. G. Johnson.
 Proc. IEEE 93, 216-231 (2005).
 The design and implementation of FFTW3.
 https://doi.org/10.1109/JPROC.2004.840301

 M. Krack, M. Parrinello.
 Phys. Chem. Chem. Phys. 2, 2105-2112 (2000).
 All-electron ab-initio molecular dynamics.
 https://doi.org/10.1039/b001167n

 G. Lippert, J. Hutter, M. Parrinello.
 Theor. Chem. Acc. 103, 124-140 (1999).
 The Gaussian and augmented-plane-wave density functional method for ab initio 
 molecular dynamics simulations.
 https://doi.org/10.1007/s002140050523

 J. P. Perdew, K. Burke, M. Ernzerhof.
 Phys. Rev. Lett. 77, 3865-3868 (1996).
 Generalized gradient approximation made simple.
 https://doi.org/10.1103/PhysRevLett.77.3865


 -------------------------------------------------------------------------------
 -                                                                             -
 -                                T I M I N G                                  -
 -                                                                             -
 -------------------------------------------------------------------------------
 SUBROUTINE                       CALLS  ASD         SELF TIME        TOTAL TIME
                                MAXIMUM       AVERAGE  MAXIMUM  AVERAGE  MAXIMUM
 CP2K                                 1  1.0    0.031    0.055  895.645  895.695
 qs_energies                          1  2.0    0.000    0.001  895.368  895.418
 qs_energies_properties               1  3.0    0.000    0.000  875.298  875.348
 post_scf_bandstructure               1  4.0    0.000    0.000  875.298  875.347
 gw                                   1  5.0    0.000    0.000  875.050  875.099
 gw_calc_large_cell_Gamma             1  6.0    0.000    0.000  866.056  866.863
 get_Sigma_c                          1  7.0    0.003    0.004  587.255  587.288
 mp_sync                          11169 12.6  438.284  542.696  438.284  542.696
 dbt_total                         2070  9.1    0.014    0.017  480.708  480.733
 dbt_contract                       864  9.9    0.034    0.038  447.859  447.888
 dbt_tas_multiply                  1728 12.4    0.004    0.005  442.115  442.147
 dbt_tas_total                     1728 13.4    0.453    0.740  442.078  442.104
 contract_to_Sigma                  244  8.0    0.004    0.005  419.543  419.591
 compute_3c_integrals               536  8.7    0.012    0.016  370.233  370.283
 dbt_tas_dbm                       1728 14.4    0.005    0.006  266.298  266.314
 get_mat_chi_Gamma_tau                1  7.0    0.002    0.003  243.584  244.381
 build_3c_integrals                 541  9.7  125.692  232.130  142.961  239.039
 compute_3c_and_contract_W          124  8.0    0.002    0.002  179.007  179.043
 dbm_multiply                      1728 16.4  128.034  163.267  128.034  163.267
 dbt_tas_mm_2                       656 15.3    0.002    0.003  116.166  116.172
 G_times_3c                         168  8.0    0.009    0.019   74.641   74.651
 dbm_redistribute                  3153 14.1   43.230   62.604   43.230   62.604
 convert_to_new_pgrid              5184 14.4    4.890   11.481   37.281   51.089
 dbt_tas_mm_3T                      488 15.5    0.001    0.001   31.029   45.142
 dbt_tas_mm_3N                      248 15.5    0.001    0.001   31.731   39.928
 mp_sum_l                          9995 14.0   22.058   26.301   22.058   26.301
 dbt_tas_mm_1N                      336 15.5    0.001    0.001   18.930   25.843
 get_W_MIC                            1  7.0    0.000    0.000   21.825   21.836
 compute_W_MIC                        1  8.0    0.000    0.000   21.824   21.836
 dbt_tas_copy                      1728 13.9    9.956   12.647   15.839   21.018
 dbt_copy                          1206 10.2    0.022    0.028   15.558   20.752
 qs_ks_build_kohn_sham_matrix         3  7.3    0.001    0.001   20.038   20.040
 scf_env_do_scf                       1  3.0    0.000    0.000   19.673   19.678
 scf_env_do_scf_inner_loop            2  4.0    0.000    0.001   19.673   19.678
 reshape_mm_compatible             1728 14.4    0.047    0.055   18.779   19.390
 change_split                      2592 14.9    0.022    0.027   18.647   19.262
 qs_ks_update_qs_env                  2  5.0    0.000    0.000   19.078   19.079
 rebuild_ks_matrix                    2  6.0    0.000    0.000   19.077   19.078
 compute_fm_W_MIC_freq_j             30  9.0    0.000    0.000   18.320   18.345
 abc_contract_xsmm              ******* 10.7    8.661   18.044    8.661   18.044
 -------------------------------------------------------------------------------

 The number of warnings for this run is : 0
 
 -------------------------------------------------------------------------------
  **** **** ******  **  PROGRAM ENDED AT                 2025-02-03 18:10:09.211
 ***** ** ***  *** **   PROGRAM RAN ON                              i04r03c04s09
 **    ****   ******    PROGRAM RAN BY                                   di75qec
 ***** **    ** ** **   PROGRAM PROCESS ID                               2877197
  **** **  *******  **  PROGRAM STOPPED IN /hppfs/scratch/09/di75qec/Octatetraen
                                           e_scf.4268466
