 DBCSR| CPU Multiplication driver                                           XSMM (U)
 DBCSR| Multrec recursion limit                                              512 (U)
 DBCSR| Multiplication stack size                                           1000 (D)
 DBCSR| Maximum elements for images                                    UNLIMITED (U)
 DBCSR| Multiplicative factor virtual images                                   1 (U)
 DBCSR| Use multiplication densification                                       T (D)
 DBCSR| Multiplication size stacks                                             3 (U)
 DBCSR| Use memory pool for CPU allocation                                     F (U)
 DBCSR| Number of 3D layers                                               SINGLE (U)
 DBCSR| Use MPI memory allocation                                              F (U)
 DBCSR| Use RMA algorithm                                                      F (U)
 DBCSR| Use Communication thread                                               T (U)
 DBCSR| Communication thread load                                             79 (D)
 DBCSR| MPI: My process id                                                     0
 DBCSR| MPI: Number of processes                                              16
 DBCSR| OMP: Current number of threads                                         3
 DBCSR| OMP: Max number of threads                                             3
 DBCSR| Split modifier for TAS multiplication algorithm                  1.0E+00 (U)


  **** **** ******  **  PROGRAM STARTED AT               2024-12-02 15:53:49.228
 ***** ** ***  *** **   PROGRAM STARTED ON                          i01r03c02s09
 **    ****   ******    PROGRAM STARTED BY                               di75qec
 ***** **    ** ** **   PROGRAM PROCESS ID                                178559
  **** **  *******  **  PROGRAM STARTED IN /hppfs/scratch/09/di75qec/Cytosine_sc
                                           f.4142575

 CP2K| version string:                 CP2K version 2024.3 (Development Version)
 CP2K| source code revision number:                                  git:29c2adf
 CP2K| cp2kflags: omp libint fftw3 libxc parallel scalapack xsmm max_contr=4    
 CP2K| is freely available from                            https://www.cp2k.org/
 CP2K| Program compiled at                       Thu 21 Nov 2024 04:40:02 PM CET
 CP2K| Program compiled on                                               login03
 CP2K| Program compiled for                                        Supermuc-foss
 CP2K| Data directory path               /dss/dsshome1/09/di75qec/CP2K-foss/data
 CP2K| Input file name                                                   scf.inp

 GLOBAL| Force Environment number                                              1
 GLOBAL| Basis set file name                                         aug-cc-pvdz
 GLOBAL| Potential file name                                      ALL_POTENTIALS
 GLOBAL| MM Potential file name                                     MM_POTENTIAL
 GLOBAL| Coordinate file name                                          coord.xyz
 GLOBAL| Method name                                                        CP2K
 GLOBAL| Project name                                                   Cytosine
 GLOBAL| Run type                                                 RT_PROPAGATION
 GLOBAL| FFT library                                                       FFTW3
 GLOBAL| Diagonalization library                                       ScaLAPACK
 GLOBAL| DGEMM library                                                      BLAS
 GLOBAL| Orthonormality check for eigenvectors                          DISABLED
 GLOBAL| Matrix multiplication library                                 ScaLAPACK
 GLOBAL| All-to-all communication in single precision                          F
 GLOBAL| FFTs using library dependent lengths                                  F
 GLOBAL| Grid backend                                                       AUTO
 GLOBAL| Global print level                                               MEDIUM
 GLOBAL| MPI I/O enabled                                                       T
 GLOBAL| Total number of message passing processes                            16
 GLOBAL| Number of threads for this process                                    3
 GLOBAL| This output is from process                                           0
 GLOBAL| Stack size for threads created by OpenMP (OMP_STACKSIZE)        default
 GLOBAL| CPU model name             Intel(R) Xeon(R) Platinum 8174 CPU @ 3.10GHz
 GLOBAL| CPUID                                                              1003
 GLOBAL| Compiled for CPUID                                                    0

 *** HINT in environment.F:921 :: The compiler target flags (generic) used ***
 *** to build this binary cannot exploit all extensions of this CPU model  ***
 *** (x86_avx512). Consider compiler target flags as part of FCFLAGS and   ***
 *** CFLAGS (ARCH file).                                                   ***


 MEMORY| system memory details [Kb]
 MEMORY|                        rank 0           min           max       average
 MEMORY| MemTotal             98436664      98436664      98436664      98436664
 MEMORY| MemFree              84220732      84220732      84220732      84220732
 MEMORY| Buffers                     0             0             0             0
 MEMORY| Cached                2377156       2377156       2377156       2377156
 MEMORY| Slab                  1162720       1162720       1162720       1162720
 MEMORY| SReclaimable           263940        263940        263940        263940
 MEMORY| MemLikelyFree        86861828      86861828      86861828      86861828


 *** Fundamental physical constants (SI units) ***

 *** Literature: B. J. Mohr and B. N. Taylor,
 ***             CODATA recommended values of the fundamental physical
 ***             constants: 2006, Web Version 5.1
 ***             http://physics.nist.gov/constants

 Speed of light in vacuum [m/s]                             2.99792458000000E+08
 Magnetic constant or permeability of vacuum [N/A**2]       1.25663706143592E-06
 Electric constant or permittivity of vacuum [F/m]          8.85418781762039E-12
 Planck constant (h) [J*s]                                  6.62606896000000E-34
 Planck constant (h-bar) [J*s]                              1.05457162825177E-34
 Elementary charge [C]                                      1.60217648700000E-19
 Electron mass [kg]                                         9.10938215000000E-31
 Electron g factor [ ]                                     -2.00231930436220E+00
 Proton mass [kg]                                           1.67262163700000E-27
 Fine-structure constant                                    7.29735253760000E-03
 Rydberg constant [1/m]                                     1.09737315685270E+07
 Avogadro constant [1/mol]                                  6.02214179000000E+23
 Boltzmann constant [J/K]                                   1.38065040000000E-23
 Atomic mass unit [kg]                                      1.66053878200000E-27
 Bohr radius [m]                                            5.29177208590000E-11

 *** Conversion factors ***

 [u] -> [a.u.]                                              1.82288848426455E+03
 [Angstrom] -> [Bohr] = [a.u.]                              1.88972613288564E+00
 [a.u.] = [Bohr] -> [Angstrom]                              5.29177208590000E-01
 [a.u.] -> [s]                                              2.41888432650478E-17
 [a.u.] -> [fs]                                             2.41888432650478E-02
 [a.u.] -> [J]                                              4.35974393937059E-18
 [a.u.] -> [N]                                              8.23872205491840E-08
 [a.u.] -> [K]                                              3.15774647902944E+05
 [a.u.] -> [kJ/mol]                                         2.62549961709828E+03
 [a.u.] -> [kcal/mol]                                       6.27509468713739E+02
 [a.u.] -> [Pa]                                             2.94210107994716E+13
 [a.u.] -> [bar]                                            2.94210107994716E+08
 [a.u.] -> [atm]                                            2.90362800883016E+08
 [a.u.] -> [eV]                                             2.72113838565563E+01
 [a.u.] -> [Hz]                                             6.57968392072181E+15
 [a.u.] -> [1/cm] (wave numbers)                            2.19474631370540E+05
 [a.u./Bohr**2] -> [1/cm]                                   5.14048714338585E+03
 

 CELL_TOP| Volume [angstrom^3]:                                      8000.000000
 CELL_TOP| Vector a [angstrom    20.000     0.000     0.000   |a| =    20.000000
 CELL_TOP| Vector b [angstrom     0.000    20.000     0.000   |b| =    20.000000
 CELL_TOP| Vector c [angstrom     0.000     0.000    20.000   |c| =    20.000000
 CELL_TOP| Angle (b,c), alpha [degree]:                                90.000000
 CELL_TOP| Angle (a,c), beta  [degree]:                                90.000000
 CELL_TOP| Angle (a,b), gamma [degree]:                                90.000000
 CELL_TOP| Numerically orthorhombic:                                         YES
 CELL_TOP| Periodicity                                                      NONE

 GENERATE|  Preliminary Number of Bonds generated:                             0
 GENERATE|  Achieved consistency in connectivity generation.

 CELL| Volume [angstrom^3]:                                          8000.000000
 CELL| Vector a [angstrom]:      20.000     0.000     0.000   |a| =    20.000000
 CELL| Vector b [angstrom]:       0.000    20.000     0.000   |b| =    20.000000
 CELL| Vector c [angstrom]:       0.000     0.000    20.000   |c| =    20.000000
 CELL| Angle (b,c), alpha [degree]:                                    90.000000
 CELL| Angle (a,c), beta  [degree]:                                    90.000000
 CELL| Angle (a,b), gamma [degree]:                                    90.000000
 CELL| Numerically orthorhombic:                                             YES
 CELL| Periodicity                                                          NONE

 CELL_REF| Volume [angstrom^3]:                                      8000.000000
 CELL_REF| Vector a [angstrom    20.000     0.000     0.000   |a| =    20.000000
 CELL_REF| Vector b [angstrom     0.000    20.000     0.000   |b| =    20.000000
 CELL_REF| Vector c [angstrom     0.000     0.000    20.000   |c| =    20.000000
 CELL_REF| Angle (b,c), alpha [degree]:                                90.000000
 CELL_REF| Angle (a,c), beta  [degree]:                                90.000000
 CELL_REF| Angle (a,b), gamma [degree]:                                90.000000
 CELL_REF| Numerically orthorhombic:                                         YES
 CELL_REF| Periodicity                                                      NONE

 *******************************************************************************
 *******************************************************************************
 **                                                                           **
 **     #####                         ##              ##                      **
 **    ##   ##            ##          ##              ##                      **
 **   ##     ##                       ##            ######                    **
 **   ##     ##  ##   ##  ##   #####  ##  ##   ####   ##    #####    #####    **
 **   ##     ##  ##   ##  ##  ##      ## ##   ##      ##   ##   ##  ##   ##   **
 **   ##  ## ##  ##   ##  ##  ##      ####     ###    ##   ######   ######    **
 **    ##  ###   ##   ##  ##  ##      ## ##      ##   ##   ##       ##        **
 **     #######   #####   ##   #####  ##  ##  ####    ##    #####   ##        **
 **           ##                                                    ##        **
 **                                                                           **
 **                                                ... make the atoms dance   **
 **                                                                           **
 **            Copyright (C) by CP2K developers group (2000-2024)             **
 **                      J. Chem. Phys. 152, 194103 (2020)                    **
 **                                                                           **
 *******************************************************************************

 DFT| Spin restricted Kohn-Sham (RKS) calculation                            RKS
 DFT| Multiplicity                                                             1
 DFT| Number of spin states                                                    1
 DFT| Charge                                                                   0
 DFT| Self-interaction correction (SIC)                                       NO
 DFT| Cutoffs: density                                              1.000000E-10
 DFT|          gradient                                             1.000000E-10
 DFT|          tau                                                  1.000000E-10
 DFT|          cutoff_smoothing_range                               0.000000E+00
 DFT| XC density smoothing                                                  NONE
 DFT| XC derivatives                                                          PW

 FUNCTIONAL| PBE:
 FUNCTIONAL| J.P.Perdew, K.Burke, M.Ernzerhof, Phys. Rev. Letter, vol. 77, n 18,
 FUNCTIONAL|  pp. 3865-3868, (1996)sx=0.750sc=1.000{spin unpolarized}           


 QS| Method:                                                                GAPW
 QS| Density plane wave grid type                        NON-SPHERICAL FULLSPACE
 QS| Number of grid levels:                                                    4
 QS| Density cutoff [a.u.]:                                                300.0
 QS| Multi grid cutoff [a.u.]: 1) grid level                               300.0
 QS|                           2) grid level                               100.0
 QS|                           3) grid level                                33.3
 QS|                           4) grid level                                11.1
 QS| Grid level progression factor:                                          3.0
 QS| Relative density cutoff [a.u.]:                                        30.0
 QS| Interaction thresholds: eps_pgf_orb:                                1.0E-05
 QS|                         eps_filter_matrix:                          0.0E+00
 QS|                         eps_core_charge:                            1.0E-12
 QS|                         eps_rho_gspace:                             1.0E-10
 QS|                         eps_rho_rspace:                             1.0E-10
 QS|                         eps_gvg_rspace:                             1.0E-05
 QS|                         eps_ppl:                                    1.0E-02
 QS|                         eps_ppnl:                                   1.0E-07
 QS| GAPW|      One center basis from orbital basis primitives
 QS| GAPW|                   eps_fit:                                    1.0E-04
 QS| GAPW|                   eps_iso:                                    1.0E-12
 QS| GAPW|                   eps_svd:                                    1.0E-08
 QS| GAPW|                   eps_cpc:                                    1.0E-10
 QS| GAPW|   atom-r-grid: quadrature:                                     GC_LOG
 QS| GAPW|      atom-s-grid:  max l :                                          4
 QS| GAPW|      max_l_rho0 :                                                   2


 ATOMIC KIND INFORMATION

  1. Atomic kind: H                                     Number of atoms:       5

     Orbital Basis Set                                               aug-cc-pvdz

       Number of orbital shell sets:                                           4
       Number of orbital shells:                                               5
       Number of primitive Cartesian functions:                                7
       Number of Cartesian basis functions:                                    9
       Number of spherical basis functions:                                    9
       Norm type:                                                              2

       Normalised Cartesian orbitals:

                        Set   Shell   Orbital            Exponent    Coefficient

                          1       1    1s               13.010000       0.096107
                                                         1.962000       0.163020
                                                         0.444600       0.185545
                                                         0.122000       0.073744

                          1       2    2s               13.010000       0.000000
                                                         1.962000       0.000000
                                                         0.444600       0.000000
                                                         0.122000       0.147123

                          2       1    1s                0.029740       0.051041

                          3       1    1px               0.727000       0.956881
                          3       1    1py               0.727000       0.956881
                          3       1    1pz               0.727000       0.956881

                          4       1    1px               0.141000       0.123158
                          4       1    1py               0.141000       0.123158
                          4       1    1pz               0.141000       0.123158

     RI Auxiliary Basis Set                                    aug-cc-pvdz-rifit

       Number of orbital shell sets:                                           9
       Number of orbital shells:                                               9
       Number of primitive Cartesian functions:                                9
       Number of Cartesian basis functions:                                   25
       Number of spherical basis functions:                                   23
       Norm type:                                                              2

       Normalised Cartesian orbitals:

                        Set   Shell   Orbital            Exponent    Coefficient

                          1       1    1s                5.115890       2.424381

                          2       1    1s                1.142965       0.787834

                          3       1    1s                0.291662       0.282859

                          4       1    1s                0.112720       0.138647

                          5       1    1px               1.914964       3.211004
                          5       1    1py               1.914964       3.211004
                          5       1    1pz               1.914964       3.211004

                          6       1    1px               0.986401       1.401222
                          6       1    1py               0.986401       1.401222
                          6       1    1pz               0.986401       1.401222

                          7       1    1px               0.285860       0.297942
                          7       1    1py               0.285860       0.297942
                          7       1    1pz               0.285860       0.297942

                          8       1    1dx2              1.172083       2.173136
                          8       1    1dxy              1.172083       3.763982
                          8       1    1dxz              1.172083       3.763982
                          8       1    1dy2              1.172083       2.173136
                          8       1    1dyz              1.172083       3.763982
                          8       1    1dz2              1.172083       2.173136

                          9       1    1dx2              0.303821       0.204640
                          9       1    1dxy              0.303821       0.354446
                          9       1    1dxz              0.303821       0.354446
                          9       1    1dy2              0.303821       0.204640
                          9       1    1dyz              0.303821       0.354446
                          9       1    1dz2              0.303821       0.204640

       Atomic covalent radius [Angstrom]:                                  0.320

       Atomic van der Waals radius [Angstrom]:                             1.090

     The atoms of this atomic kind are PAW atoms (GAPW):
       Hard Gaussian function radius:                                      1.200
       Rho0 radius:                                                        1.200
       Maximum GTO radius used for PAW projector construction:            24.566

     GAPW Soft Basis Set                                        aug-cc-pvdz_soft

       Number of orbital shell sets:                                           4
       Number of orbital shells:                                               5
       Number of primitive Cartesian functions:                                6
       Number of Cartesian basis functions:                                    9
       Number of spherical basis functions:                                    9
       Norm type:                                                              2

       Normalised Cartesian orbitals:

                        Set   Shell   Orbital            Exponent    Coefficient

                          1       1    1s                1.962000       0.163020
                                                         0.444600       0.185545
                                                         0.122000       0.073744

                          1       2    2s                1.962000       0.000000
                                                         0.444600       0.000000
                                                         0.122000       0.147123

                          2       1    1s                0.029740       0.051041

                          3       1    1px               0.727000       0.956881
                          3       1    1py               0.727000       0.956881
                          3       1    1pz               0.727000       0.956881

                          4       1    1px               0.141000       0.123158
                          4       1    1py               0.141000       0.123158
                          4       1    1pz               0.141000       0.123158

     AE Potential information for                                            ALL

       Description:                                       All-electron potential
                                          Krack, Parrinello, PCCP 2, 2105 (2000)

       Gaussian exponent of the core charge distribution:              12.500000
       Electronic configuration (s p d ...):                           1   0   0

  2. Atomic kind: C                                     Number of atoms:       4

     Orbital Basis Set                                               aug-cc-pvdz

       Number of orbital shell sets:                                           6
       Number of orbital shells:                                               9
       Number of primitive Cartesian functions:                               17
       Number of Cartesian basis functions:                                   25
       Number of spherical basis functions:                                   23
       Norm type:                                                              2

       Normalised Cartesian orbitals:

                        Set   Shell   Orbital            Exponent    Coefficient

                          1       1    1s             6665.000000       0.363803
                                                      1000.000000       0.675392
                                                       228.000000       1.132301
                                                        64.710000       1.654004
                                                        21.060000       1.924978
                                                         7.495000       1.448149
                                                         2.797000       0.439427
                                                         0.521500       0.006650
                                                         0.159600      -0.000574

                          1       2    2s             6665.000000      -0.076756
                                                      1000.000000      -0.146257
                                                       228.000000      -0.239407
                                                        64.710000      -0.379069
                                                        21.060000      -0.448104
                                                         7.495000      -0.484201
                                                         2.797000      -0.196168
                                                         0.521500       0.238162
                                                         0.159600       0.104468

                          1       3    3s             6665.000000       0.000000
                                                      1000.000000       0.000000
                                                       228.000000       0.000000
                                                        64.710000       0.000000
                                                        21.060000       0.000000
                                                         7.495000       0.000000
                                                         2.797000       0.000000
                                                         0.521500       0.000000
                                                         0.159600       0.179964

                          2       1    1s                0.046900       0.071827

                          3       1    1px               9.439000       0.898722
                                                         2.002000       0.711071
                                                         0.545600       0.339917
                                                         0.151700       0.063270
                          3       1    1py               9.439000       0.898722
                                                         2.002000       0.711071
                                                         0.545600       0.339917
                                                         0.151700       0.063270
                          3       1    1pz               9.439000       0.898722
                                                         2.002000       0.711071
                                                         0.545600       0.339917
                                                         0.151700       0.063270

                          3       2    2px               9.439000       0.000000
                                                         2.002000       0.000000
                                                         0.545600       0.000000
                                                         0.151700       0.134950
                          3       2    2py               9.439000       0.000000
                                                         2.002000       0.000000
                                                         0.545600       0.000000
                                                         0.151700       0.134950
                          3       2    2pz               9.439000       0.000000
                                                         2.002000       0.000000
                                                         0.545600       0.000000
                                                         0.151700       0.134950

                          4       1    1px               0.040410       0.025826
                          4       1    1py               0.040410       0.025826
                          4       1    1pz               0.040410       0.025826

                          5       1    1dx2              0.550000       0.578155
                          5       1    1dxy              0.550000       1.001394
                          5       1    1dxz              0.550000       1.001394
                          5       1    1dy2              0.550000       0.578155
                          5       1    1dyz              0.550000       1.001394
                          5       1    1dz2              0.550000       0.578155

                          6       1    1dx2              0.151000       0.060203
                          6       1    1dxy              0.151000       0.104275
                          6       1    1dxz              0.151000       0.104275
                          6       1    1dy2              0.151000       0.060203
                          6       1    1dyz              0.151000       0.104275
                          6       1    1dz2              0.151000       0.060203

     RI Auxiliary Basis Set                                    aug-cc-pvdz-rifit

       Number of orbital shell sets:                                          22
       Number of orbital shells:                                              22
       Number of primitive Cartesian functions:                               22
       Number of Cartesian basis functions:                                   86
       Number of spherical basis functions:                                   72
       Norm type:                                                              2

       Normalised Cartesian orbitals:

                        Set   Shell   Orbital            Exponent    Coefficient

                          1       1    1s               62.745300      15.888979

                          2       1    1s               13.804500       5.104176

                          3       1    1s                4.772770       2.301378

                          4       1    1s                1.513330       0.972434

                          5       1    1s                0.782697       0.593069

                          6       1    1s                0.409072       0.364552

                          7       1    1s                0.206796       0.218558

                          8       1    1s                0.073830       0.100945

                          9       1    1px              20.885100      63.640823
                          9       1    1py              20.885100      63.640823
                          9       1    1pz              20.885100      63.640823

                         10       1    1px               6.005230      13.399918
                         10       1    1py               6.005230      13.399918
                         10       1    1pz               6.005230      13.399918

                         11       1    1px               1.720600       2.808924
                         11       1    1py               1.720600       2.808924
                         11       1    1pz               1.720600       2.808924

                         12       1    1px               0.754465       1.002280
                         12       1    1py               0.754465       1.002280
                         12       1    1pz               0.754465       1.002280

                         13       1    1px               0.321667       0.345301
                         13       1    1py               0.321667       0.345301
                         13       1    1pz               0.321667       0.345301

                         14       1    1px               0.125953       0.106954
                         14       1    1py               0.125953       0.106954
                         14       1    1pz               0.125953       0.106954

                         15       1    1dx2             10.171500      95.352748
                         15       1    1dxy             10.171500     165.155804
                         15       1    1dxz             10.171500     165.155804
                         15       1    1dy2             10.171500      95.352748
                         15       1    1dyz             10.171500     165.155804
                         15       1    1dz2             10.171500      95.352748

                         16       1    1dx2              2.678440       9.230024
                         16       1    1dxy              2.678440      15.986870
                         16       1    1dxz              2.678440      15.986870
                         16       1    1dy2              2.678440       9.230024
                         16       1    1dyz              2.678440      15.986870
                         16       1    1dz2              2.678440       9.230024

                         17       1    1dx2              0.922515       1.429266
                         17       1    1dxy              0.922515       2.475561
                         17       1    1dxz              0.922515       2.475561
                         17       1    1dy2              0.922515       1.429266
                         17       1    1dyz              0.922515       2.475561
                         17       1    1dz2              0.922515       1.429266

                         18       1    1dx2              0.340842       0.250252
                         18       1    1dxy              0.340842       0.433449
                         18       1    1dxz              0.340842       0.433449
                         18       1    1dy2              0.340842       0.250252
                         18       1    1dyz              0.340842       0.433449
                         18       1    1dz2              0.340842       0.250252

                         19       1    1dx2              0.110211       0.034698
                         19       1    1dxy              0.110211       0.060099
                         19       1    1dxz              0.110211       0.060099
                         19       1    1dy2              0.110211       0.034698
                         19       1    1dyz              0.110211       0.060099
                         19       1    1dz2              0.110211       0.034698

                         20       1    1fx3              2.742930      14.254027
                         20       1    1fx2y             2.742930      31.872974
                         20       1    1fx2z             2.742930      31.872974
                         20       1    1fxy2             2.742930      31.872974
                         20       1    1fxyz             2.742930      55.205610
                         20       1    1fxz2             2.742930      31.872974
                         20       1    1fy3              2.742930      14.254027
                         20       1    1fy2z             2.742930      31.872974
                         20       1    1fyz2             2.742930      31.872974
                         20       1    1fz3              2.742930      14.254027

                         21       1    1fx3              0.895756       1.149162
                         21       1    1fx2y             0.895756       2.569605
                         21       1    1fx2z             0.895756       2.569605
                         21       1    1fxy2             0.895756       2.569605
                         21       1    1fxyz             0.895756       4.450686
                         21       1    1fxz2             0.895756       2.569605
                         21       1    1fy3              0.895756       1.149162
                         21       1    1fy2z             0.895756       2.569605
                         21       1    1fyz2             0.895756       2.569605
                         21       1    1fz3              0.895756       1.149162

                         22       1    1fx3              0.317146       0.111119
                         22       1    1fx2y             0.317146       0.248470
                         22       1    1fx2z             0.317146       0.248470
                         22       1    1fxy2             0.317146       0.248470
                         22       1    1fxyz             0.317146       0.430362
                         22       1    1fxz2             0.317146       0.248470
                         22       1    1fy3              0.317146       0.111119
                         22       1    1fy2z             0.317146       0.248470
                         22       1    1fyz2             0.317146       0.248470
                         22       1    1fz3              0.317146       0.111119

       Atomic covalent radius [Angstrom]:                                  0.770

       Atomic van der Waals radius [Angstrom]:                             1.700

     The atoms of this atomic kind are PAW atoms (GAPW):
       Hard Gaussian function radius:                                      1.512
       Rho0 radius:                                                        1.512
       Maximum GTO radius used for PAW projector construction:            24.566

     GAPW Soft Basis Set                                        aug-cc-pvdz_soft

       Number of orbital shell sets:                                           6
       Number of orbital shells:                                               9
       Number of primitive Cartesian functions:                               10
       Number of Cartesian basis functions:                                   25
       Number of spherical basis functions:                                   23
       Norm type:                                                              2

       Normalised Cartesian orbitals:

                        Set   Shell   Orbital            Exponent    Coefficient

                          1       1    1s                2.797000       0.439427
                                                         0.521500       0.006650
                                                         0.159600      -0.000574

                          1       2    2s                2.797000      -0.196168
                                                         0.521500       0.238162
                                                         0.159600       0.104468

                          1       3    3s                2.797000       0.000000
                                                         0.521500       0.000000
                                                         0.159600       0.179964

                          2       1    1s                0.046900       0.071827

                          3       1    1px               2.002000       0.711071
                                                         0.545600       0.339917
                                                         0.151700       0.063270
                          3       1    1py               2.002000       0.711071
                                                         0.545600       0.339917
                                                         0.151700       0.063270
                          3       1    1pz               2.002000       0.711071
                                                         0.545600       0.339917
                                                         0.151700       0.063270

                          3       2    2px               2.002000       0.000000
                                                         0.545600       0.000000
                                                         0.151700       0.134950
                          3       2    2py               2.002000       0.000000
                                                         0.545600       0.000000
                                                         0.151700       0.134950
                          3       2    2pz               2.002000       0.000000
                                                         0.545600       0.000000
                                                         0.151700       0.134950

                          4       1    1px               0.040410       0.025826
                          4       1    1py               0.040410       0.025826
                          4       1    1pz               0.040410       0.025826

                          5       1    1dx2              0.550000       0.578155
                          5       1    1dxy              0.550000       1.001394
                          5       1    1dxz              0.550000       1.001394
                          5       1    1dy2              0.550000       0.578155
                          5       1    1dyz              0.550000       1.001394
                          5       1    1dz2              0.550000       0.578155

                          6       1    1dx2              0.151000       0.060203
                          6       1    1dxy              0.151000       0.104275
                          6       1    1dxz              0.151000       0.104275
                          6       1    1dy2              0.151000       0.060203
                          6       1    1dyz              0.151000       0.104275
                          6       1    1dz2              0.151000       0.060203

     AE Potential information for                                            ALL

       Description:                                       All-electron potential
                                          Krack, Parrinello, PCCP 2, 2105 (2000)

       Gaussian exponent of the core charge distribution:               4.109048
       Electronic configuration (s p d ...):                           4   2   0

  3. Atomic kind: O                                     Number of atoms:       1

     Orbital Basis Set                                               aug-cc-pvdz

       Number of orbital shell sets:                                           6
       Number of orbital shells:                                               9
       Number of primitive Cartesian functions:                               17
       Number of Cartesian basis functions:                                   25
       Number of spherical basis functions:                                   23
       Norm type:                                                              2

       Normalised Cartesian orbitals:

                        Set   Shell   Orbital            Exponent    Coefficient

                          1       1    1s            11720.000000       0.569986
                                                      1759.000000       1.058881
                                                       400.800000       1.777168
                                                       113.700000       2.600710
                                                        37.030000       3.028357
                                                        13.270000       2.223504
                                                         5.025000       0.648119
                                                         1.013000       0.011124
                                                         0.302300      -0.000751

                          1       2    2s            11720.000000      -0.128448
                                                      1759.000000      -0.244491
                                                       400.800000      -0.400097
                                                       113.700000      -0.638166
                                                        37.030000      -0.758785
                                                        13.270000      -0.819649
                                                         5.025000      -0.279757
                                                         1.013000       0.401106
                                                         0.302300       0.166422

                          1       3    3s            11720.000000       0.000000
                                                      1759.000000       0.000000
                                                       400.800000       0.000000
                                                       113.700000       0.000000
                                                        37.030000       0.000000
                                                        13.270000       0.000000
                                                         5.025000       0.000000
                                                         1.013000       0.000000
                                                         0.302300       0.290562

                          2       1    1s                0.078960       0.106161

                          3       1    1px              17.700000       2.226162
                                                         3.854000       1.761976
                                                         1.046000       0.767079
                                                         0.275300       0.130905
                          3       1    1py              17.700000       2.226162
                                                         3.854000       1.761976
                                                         1.046000       0.767079
                                                         0.275300       0.130905
                          3       1    1pz              17.700000       2.226162
                                                         3.854000       1.761976
                                                         1.046000       0.767079
                                                         0.275300       0.130905

                          3       2    2px              17.700000       0.000000
                                                         3.854000       0.000000
                                                         1.046000       0.000000
                                                         0.275300       0.284248
                          3       2    2py              17.700000       0.000000
                                                         3.854000       0.000000
                                                         1.046000       0.000000
                                                         0.275300       0.284248
                          3       2    2pz              17.700000       0.000000
                                                         3.854000       0.000000
                                                         1.046000       0.000000
                                                         0.275300       0.284248

                          4       1    1px               0.068560       0.050007
                          4       1    1py               0.068560       0.050007
                          4       1    1pz               0.068560       0.050007

                          5       1    1dx2              1.185000       2.215218
                          5       1    1dxy              1.185000       3.836871
                          5       1    1dxz              1.185000       3.836871
                          5       1    1dy2              1.185000       2.215218
                          5       1    1dyz              1.185000       3.836871
                          5       1    1dz2              1.185000       2.215218

                          6       1    1dx2              0.332000       0.239002
                          6       1    1dxy              0.332000       0.413963
                          6       1    1dxz              0.332000       0.413963
                          6       1    1dy2              0.332000       0.239002
                          6       1    1dyz              0.332000       0.413963
                          6       1    1dz2              0.332000       0.239002

     RI Auxiliary Basis Set                                    aug-cc-pvdz-rifit

       Number of orbital shell sets:                                          22
       Number of orbital shells:                                              22
       Number of primitive Cartesian functions:                               22
       Number of Cartesian basis functions:                                   86
       Number of spherical basis functions:                                   72
       Norm type:                                                              2

       Normalised Cartesian orbitals:

                        Set   Shell   Orbital            Exponent    Coefficient

                          1       1    1s              109.461000      24.118742

                          2       1    1s               25.578000       8.106064

                          3       1    1s                9.551480       3.872247

                          4       1    1s                2.939600       1.600023

                          5       1    1s                1.396380       0.915509

                          6       1    1s                0.905061       0.661330

                          7       1    1s                0.421376       0.372746

                          8       1    1s                0.121792       0.146935

                          9       1    1px              36.129200     126.259196
                          9       1    1py              36.129200     126.259196
                          9       1    1pz              36.129200     126.259196

                         10       1    1px              10.881700      28.171568
                         10       1    1py              10.881700      28.171568
                         10       1    1pz              10.881700      28.171568

                         11       1    1px               3.205940       6.114829
                         11       1    1py               3.205940       6.114829
                         11       1    1pz               3.205940       6.114829

                         12       1    1px               1.403870       2.178205
                         12       1    1py               1.403870       2.178205
                         12       1    1pz               1.403870       2.178205

                         13       1    1px               0.612763       0.772780
                         13       1    1py               0.612763       0.772780
                         13       1    1pz               0.612763       0.772780

                         14       1    1px               0.211443       0.204377
                         14       1    1py               0.211443       0.204377
                         14       1    1pz               0.211443       0.204377

                         15       1    1dx2             15.251100     193.725371
                         15       1    1dxy             15.251100     335.542185
                         15       1    1dxz             15.251100     335.542185
                         15       1    1dy2             15.251100     193.725371
                         15       1    1dyz             15.251100     335.542185
                         15       1    1dz2             15.251100     193.725371

                         16       1    1dx2              4.520870      23.070021
                         16       1    1dxy              4.520870      39.958448
                         16       1    1dxz              4.520870      39.958448
                         16       1    1dy2              4.520870      23.070021
                         16       1    1dyz              4.520870      39.958448
                         16       1    1dz2              4.520870      23.070021

                         17       1    1dx2              1.812210       4.658803
                         17       1    1dxy              1.812210       8.069284
                         17       1    1dxz              1.812210       8.069284
                         17       1    1dy2              1.812210       4.658803
                         17       1    1dyz              1.812210       8.069284
                         17       1    1dz2              1.812210       4.658803

                         18       1    1dx2              0.592201       0.658007
                         18       1    1dxy              0.592201       1.139701
                         18       1    1dxz              0.592201       1.139701
                         18       1    1dy2              0.592201       0.658007
                         18       1    1dyz              0.592201       1.139701
                         18       1    1dz2              0.592201       0.658007

                         19       1    1dx2              0.166448       0.071392
                         19       1    1dxy              0.166448       0.123654
                         19       1    1dxz              0.166448       0.123654
                         19       1    1dy2              0.166448       0.071392
                         19       1    1dyz              0.166448       0.123654
                         19       1    1dz2              0.166448       0.071392

                         20       1    1fx3              4.221940      37.614611
                         20       1    1fx2y             4.221940      84.108828
                         20       1    1fx2z             4.221940      84.108828
                         20       1    1fxy2             4.221940      84.108828
                         20       1    1fxyz             4.221940     145.680763
                         20       1    1fxz2             4.221940      84.108828
                         20       1    1fy3              4.221940      37.614611
                         20       1    1fy2z             4.221940      84.108828
                         20       1    1fyz2             4.221940      84.108828
                         20       1    1fz3              4.221940      37.614611

                         21       1    1fx3              1.790210       5.457433
                         21       1    1fx2y             1.790210      12.203191
                         21       1    1fx2z             1.790210      12.203191
                         21       1    1fxy2             1.790210      12.203191
                         21       1    1fxyz             1.790210      21.136547
                         21       1    1fxz2             1.790210      12.203191
                         21       1    1fy3              1.790210       5.457433
                         21       1    1fy2z             1.790210      12.203191
                         21       1    1fyz2             1.790210      12.203191
                         21       1    1fz3              1.790210       5.457433

                         22       1    1fx3              0.584610       0.439950
                         22       1    1fx2y             0.584610       0.983757
                         22       1    1fx2z             0.584610       0.983757
                         22       1    1fxy2             0.584610       0.983757
                         22       1    1fxyz             0.584610       1.703917
                         22       1    1fxz2             0.584610       0.983757
                         22       1    1fy3              0.584610       0.439950
                         22       1    1fy2z             0.584610       0.983757
                         22       1    1fyz2             0.584610       0.983757
                         22       1    1fz3              0.584610       0.439950

       Atomic covalent radius [Angstrom]:                                  0.730

       Atomic van der Waals radius [Angstrom]:                             1.520

     The atoms of this atomic kind are PAW atoms (GAPW):
       Hard Gaussian function radius:                                      1.512
       Rho0 radius:                                                        1.512
       Maximum GTO radius used for PAW projector construction:            24.566

     GAPW Soft Basis Set                                        aug-cc-pvdz_soft

       Number of orbital shell sets:                                           6
       Number of orbital shells:                                               9
       Number of primitive Cartesian functions:                                9
       Number of Cartesian basis functions:                                   25
       Number of spherical basis functions:                                   23
       Norm type:                                                              2

       Normalised Cartesian orbitals:

                        Set   Shell   Orbital            Exponent    Coefficient

                          1       1    1s                1.013000       0.011124
                                                         0.302300      -0.000751

                          1       2    2s                1.013000       0.401106
                                                         0.302300       0.166422

                          1       3    3s                1.013000       0.000000
                                                         0.302300       0.290562

                          2       1    1s                0.078960       0.106161

                          3       1    1px               3.854000       1.761976
                                                         1.046000       0.767079
                                                         0.275300       0.130905
                          3       1    1py               3.854000       1.761976
                                                         1.046000       0.767079
                                                         0.275300       0.130905
                          3       1    1pz               3.854000       1.761976
                                                         1.046000       0.767079
                                                         0.275300       0.130905

                          3       2    2px               3.854000       0.000000
                                                         1.046000       0.000000
                                                         0.275300       0.284248
                          3       2    2py               3.854000       0.000000
                                                         1.046000       0.000000
                                                         0.275300       0.284248
                          3       2    2pz               3.854000       0.000000
                                                         1.046000       0.000000
                                                         0.275300       0.284248

                          4       1    1px               0.068560       0.050007
                          4       1    1py               0.068560       0.050007
                          4       1    1pz               0.068560       0.050007

                          5       1    1dx2              1.185000       2.215218
                          5       1    1dxy              1.185000       3.836871
                          5       1    1dxz              1.185000       3.836871
                          5       1    1dy2              1.185000       2.215218
                          5       1    1dyz              1.185000       3.836871
                          5       1    1dz2              1.185000       2.215218

                          6       1    1dx2              0.332000       0.239002
                          6       1    1dxy              0.332000       0.413963
                          6       1    1dxz              0.332000       0.413963
                          6       1    1dy2              0.332000       0.239002
                          6       1    1dyz              0.332000       0.413963
                          6       1    1dz2              0.332000       0.239002

     AE Potential information for                                            ALL

       Description:                                       All-electron potential
                                          Krack, Parrinello, PCCP 2, 2105 (2000)

       Gaussian exponent of the core charge distribution:               8.154466
       Electronic configuration (s p d ...):                           4   4   0

  4. Atomic kind: N                                     Number of atoms:       3

     Orbital Basis Set                                               aug-cc-pvdz

       Number of orbital shell sets:                                           6
       Number of orbital shells:                                               9
       Number of primitive Cartesian functions:                               17
       Number of Cartesian basis functions:                                   25
       Number of spherical basis functions:                                   23
       Norm type:                                                              2

       Normalised Cartesian orbitals:

                        Set   Shell   Orbital            Exponent    Coefficient

                          1       1    1s             9046.000000       0.462754
                                                      1357.000000       0.858723
                                                       309.300000       1.440591
                                                        87.730000       2.108533
                                                        28.560000       2.454153
                                                        10.210000       1.825915
                                                         3.838000       0.543758
                                                         0.746600       0.008838
                                                         0.224800      -0.000666

                          1       2    2s             9046.000000      -0.101145
                                                      1357.000000      -0.192492
                                                       309.300000      -0.314968
                                                        87.730000      -0.501437
                                                        28.560000      -0.593976
                                                        10.210000      -0.643503
                                                         3.838000      -0.238093
                                                         0.746600       0.314268
                                                         0.224800       0.134678

                          1       3    3s             9046.000000       0.000000
                                                      1357.000000       0.000000
                                                       309.300000       0.000000
                                                        87.730000       0.000000
                                                        28.560000       0.000000
                                                        10.210000       0.000000
                                                         3.838000       0.000000
                                                         0.746600       0.000000
                                                         0.224800       0.232679

                          2       1    1s                0.061240       0.087738

                          3       1    1px              13.550000       1.479258
                                                         2.917000       1.180072
                                                         0.797300       0.548036
                                                         0.218500       0.098423
                          3       1    1py              13.550000       1.479258
                                                         2.917000       1.180072
                                                         0.797300       0.548036
                                                         0.218500       0.098423
                          3       1    1pz              13.550000       1.479258
                                                         2.917000       1.180072
                                                         0.797300       0.548036
                                                         0.218500       0.098423

                          3       2    2px              13.550000       0.000000
                                                         2.917000       0.000000
                                                         0.797300       0.000000
                                                         0.218500       0.212939
                          3       2    2py              13.550000       0.000000
                                                         2.917000       0.000000
                                                         0.797300       0.000000
                                                         0.218500       0.212939
                          3       2    2pz              13.550000       0.000000
                                                         2.917000       0.000000
                                                         0.797300       0.000000
                                                         0.218500       0.212939

                          4       1    1px               0.056110       0.038926
                          4       1    1py               0.056110       0.038926
                          4       1    1pz               0.056110       0.038926

                          5       1    1dx2              0.817000       1.155575
                          5       1    1dxy              0.817000       2.001514
                          5       1    1dxz              0.817000       2.001514
                          5       1    1dy2              0.817000       1.155575
                          5       1    1dyz              0.817000       2.001514
                          5       1    1dz2              0.817000       1.155575

                          6       1    1dx2              0.230000       0.125728
                          6       1    1dxy              0.230000       0.217768
                          6       1    1dxz              0.230000       0.217768
                          6       1    1dy2              0.230000       0.125728
                          6       1    1dyz              0.230000       0.217768
                          6       1    1dz2              0.230000       0.125728

     RI Auxiliary Basis Set                                    aug-cc-pvdz-rifit

       Number of orbital shell sets:                                          22
       Number of orbital shells:                                              22
       Number of primitive Cartesian functions:                               22
       Number of Cartesian basis functions:                                   86
       Number of spherical basis functions:                                   72
       Norm type:                                                              2

       Normalised Cartesian orbitals:

                        Set   Shell   Orbital            Exponent    Coefficient

                          1       1    1s               87.686400      20.422517

                          2       1    1s               20.467900       6.858278

                          3       1    1s                7.624360       3.270112

                          4       1    1s                2.344260       1.350251

                          5       1    1s                1.123240       0.777615

                          6       1    1s                0.723539       0.559122

                          7       1    1s                0.327261       0.308376

                          8       1    1s                0.103612       0.130157

                          9       1    1px              29.237300      96.908455
                          9       1    1py              29.237300      96.908455
                          9       1    1pz              29.237300      96.908455

                         10       1    1px               8.552990      20.849111
                         10       1    1py               8.552990      20.849111
                         10       1    1pz               8.552990      20.849111

                         11       1    1px               2.533640       4.556393
                         11       1    1py               2.533640       4.556393
                         11       1    1pz               2.533640       4.556393

                         12       1    1px               1.094610       1.595932
                         12       1    1py               1.094610       1.595932
                         12       1    1pz               1.094610       1.595932

                         13       1    1px               0.461104       0.541613
                         13       1    1py               0.461104       0.541613
                         13       1    1pz               0.461104       0.541613

                         14       1    1px               0.169682       0.155233
                         14       1    1py               0.169682       0.155233
                         14       1    1pz               0.169682       0.155233

                         15       1    1dx2             12.327800     133.493224
                         15       1    1dxy             12.327800     231.217046
                         15       1    1dxz             12.327800     231.217046
                         15       1    1dy2             12.327800     133.493224
                         15       1    1dyz             12.327800     231.217046
                         15       1    1dz2             12.327800     133.493224

                         16       1    1dx2              3.428160      14.215638
                         16       1    1dxy              3.428160      24.622207
                         16       1    1dxz              3.428160      24.622207
                         16       1    1dy2              3.428160      14.215638
                         16       1    1dyz              3.428160      24.622207
                         16       1    1dz2              3.428160      14.215638

                         17       1    1dx2              1.285370       2.553929
                         17       1    1dxy              1.285370       4.423534
                         17       1    1dxz              1.285370       4.423534
                         17       1    1dy2              1.285370       2.553929
                         17       1    1dyz              1.285370       4.423534
                         17       1    1dz2              1.285370       2.553929

                         18       1    1dx2              0.477850       0.452033
                         18       1    1dxy              0.477850       0.782943
                         18       1    1dxz              0.477850       0.782943
                         18       1    1dy2              0.477850       0.452033
                         18       1    1dyz              0.477850       0.782943
                         18       1    1dz2              0.477850       0.452033

                         19       1    1dx2              0.133499       0.048529
                         19       1    1dxy              0.133499       0.084054
                         19       1    1dxz              0.133499       0.084054
                         19       1    1dy2              0.133499       0.048529
                         19       1    1dyz              0.133499       0.084054
                         19       1    1dz2              0.133499       0.048529

                         20       1    1fx3              3.401180      23.127095
                         20       1    1fx2y             3.401180      51.713757
                         20       1    1fx2z             3.401180      51.713757
                         20       1    1fxy2             3.401180      51.713757
                         20       1    1fxyz             3.401180      89.570854
                         20       1    1fxz2             3.401180      51.713757
                         20       1    1fy3              3.401180      23.127095
                         20       1    1fy2z             3.401180      51.713757
                         20       1    1fyz2             3.401180      51.713757
                         20       1    1fz3              3.401180      23.127095

                         21       1    1fx3              1.334730       2.818965
                         21       1    1fx2y             1.334730       6.303397
                         21       1    1fx2z             1.334730       6.303397
                         21       1    1fxy2             1.334730       6.303397
                         21       1    1fxyz             1.334730      10.917804
                         21       1    1fxz2             1.334730       6.303397
                         21       1    1fy3              1.334730       2.818965
                         21       1    1fy2z             1.334730       6.303397
                         21       1    1fyz2             1.334730       6.303397
                         21       1    1fz3              1.334730       2.818965

                         22       1    1fx3              0.419760       0.208789
                         22       1    1fx2y             0.419760       0.466866
                         22       1    1fx2z             0.419760       0.466866
                         22       1    1fxy2             0.419760       0.466866
                         22       1    1fxyz             0.419760       0.808636
                         22       1    1fxz2             0.419760       0.466866
                         22       1    1fy3              0.419760       0.208789
                         22       1    1fy2z             0.419760       0.466866
                         22       1    1fyz2             0.419760       0.466866
                         22       1    1fz3              0.419760       0.208789

       Atomic covalent radius [Angstrom]:                                  0.750

       Atomic van der Waals radius [Angstrom]:                             1.550

     The atoms of this atomic kind are PAW atoms (GAPW):
       Hard Gaussian function radius:                                      1.512
       Rho0 radius:                                                        1.512
       Maximum GTO radius used for PAW projector construction:            24.566

     GAPW Soft Basis Set                                        aug-cc-pvdz_soft

       Number of orbital shell sets:                                           6
       Number of orbital shells:                                               9
       Number of primitive Cartesian functions:                               10
       Number of Cartesian basis functions:                                   25
       Number of spherical basis functions:                                   23
       Norm type:                                                              2

       Normalised Cartesian orbitals:

                        Set   Shell   Orbital            Exponent    Coefficient

                          1       1    1s                3.838000       0.543758
                                                         0.746600       0.008838
                                                         0.224800      -0.000666

                          1       2    2s                3.838000      -0.238093
                                                         0.746600       0.314268
                                                         0.224800       0.134678

                          1       3    3s                3.838000       0.000000
                                                         0.746600       0.000000
                                                         0.224800       0.232679

                          2       1    1s                0.061240       0.087738

                          3       1    1px               2.917000       1.180072
                                                         0.797300       0.548036
                                                         0.218500       0.098423
                          3       1    1py               2.917000       1.180072
                                                         0.797300       0.548036
                                                         0.218500       0.098423
                          3       1    1pz               2.917000       1.180072
                                                         0.797300       0.548036
                                                         0.218500       0.098423

                          3       2    2px               2.917000       0.000000
                                                         0.797300       0.000000
                                                         0.218500       0.212939
                          3       2    2py               2.917000       0.000000
                                                         0.797300       0.000000
                                                         0.218500       0.212939
                          3       2    2pz               2.917000       0.000000
                                                         0.797300       0.000000
                                                         0.218500       0.212939

                          4       1    1px               0.056110       0.038926
                          4       1    1py               0.056110       0.038926
                          4       1    1pz               0.056110       0.038926

                          5       1    1dx2              0.817000       1.155575
                          5       1    1dxy              0.817000       2.001514
                          5       1    1dxz              0.817000       2.001514
                          5       1    1dy2              0.817000       1.155575
                          5       1    1dyz              0.817000       2.001514
                          5       1    1dz2              0.817000       1.155575

                          6       1    1dx2              0.230000       0.125728
                          6       1    1dxy              0.230000       0.217768
                          6       1    1dxz              0.230000       0.217768
                          6       1    1dy2              0.230000       0.125728
                          6       1    1dyz              0.230000       0.217768
                          6       1    1dz2              0.230000       0.125728

     AE Potential information for                                            ALL

       Description:                                       All-electron potential
                                          Krack, Parrinello, PCCP 2, 2105 (2000)

       Gaussian exponent of the core charge distribution:               5.979100
       Electronic configuration (s p d ...):                           4   3   0


 MOLECULE KIND INFORMATION


 All atoms are their own molecule, skipping detailed information


 TOTAL NUMBERS AND MAXIMUM NUMBERS

  Total number of            - Atomic kinds:                                   4
                             - Atoms:                                         13
                             - Shell sets:                                    68
[...]
 flops    23 x   160 x   167             22124160       0.0%    100.0%      0.0%     
 flops    95 x   160 x   190             23104000       0.0%    100.0%      0.0%     
 flops    23 x     9 x    37             24202440       0.0%    100.0%      0.0%     
 flops     9 x    23 x    37             24202440       0.0%    100.0%      0.0%     
 flops    72 x   179 x   190             29384640       0.0%    100.0%      0.0%     
 flops    72 x   192 x   190             31518720       0.0%    100.0%      0.0%     
 flops    95 x   179 x   167             34078020       0.0%    100.0%      0.0%     
 flops    95 x   192 x   167             36552960       0.0%    100.0%      0.0%     
 flops     9 x     9 x    64             36858240       0.0%    100.0%      0.0%     
 flops    72 x   160 x   190             52531200       0.0%    100.0%      0.0%     
 flops    95 x   160 x   167             60921600       0.0%    100.0%      0.0%     
 flops    72 x   179 x   167             77482656       0.0%    100.0%      0.0%     
 flops    72 x   192 x   167             83109888       0.0%    100.0%      0.0%     
 flops    23 x    23 x    37            111331224       0.0%    100.0%      0.0%     
 flops    23 x     9 x    64            125591040       0.0%    100.0%      0.0%     
 flops     9 x    23 x    64            125591040       0.0%    100.0%      0.0%     
 flops    72 x   160 x   167            138516480       0.0%    100.0%      0.0%     
 flops    23 x    23 x    64            577718784       0.0%    100.0%      0.0%     
 flops inhomo. stacks                           0       0.0%      0.0%      0.0%
 flops total                         1.692477E+09       0.0%    100.0%      0.0%
 flops max/rank                    146.587116E+06       0.0%    100.0%      0.0%
 matmuls inhomo. stacks                         0       0.0%      0.0%      0.0%
 matmuls total                              28932       0.0%    100.0%      0.0%
 number of processed stacks                 24508       0.0%    100.0%      0.0%
 average stack size                                     0.0       1.2       0.0
 marketing flops                   900.163520E+06
 -------------------------------------------------------------------------------
 # multiplications                             80
 max memory usage/rank               2.019377E+09
 # max total images/rank                        1
 # max 3D layers                                1
 # MPI messages exchanged                    7680
 MPI messages size (bytes):
  total size                       221.775360E+06
  min size                          16.280000E+03
  max size                         291.840000E+03
  average size                      28.877000E+03
 MPI breakdown and total messages size (bytes):
             size <=      128                   0                        0
       128 < size <=     8192                   0                        0
      8192 < size <=    32768                7584                198856272
     32768 < size <=   131072                   0                        0
    131072 < size <=  4194304                  96                 22919088
   4194304 < size <= 16777216                   0                        0
  16777216 < size                               0                        0
 -------------------------------------------------------------------------------
 -                                                                             -
 -                      DBCSR MESSAGE PASSING PERFORMANCE                      -
 -                                                                             -
 -------------------------------------------------------------------------------
 ROUTINE             CALLS      AVE VOLUME [Bytes]
 MP_Bcast               27                     12.
 MP_Allreduce          714                     10.
 MP_Alltoall          7192                  29819.
 MP_ISend             1280                  13492.
 MP_IRecv             1280                  11731.
 -------------------------------------------------------------------------------

 -------------------------------------------------------------------------------
 -                                                                             -
 -                                DBM STATISTICS                               -
 -                                                                             -
 -------------------------------------------------------------------------------
    M  x    N  x    K                                          COUNT     PERCENT
    ?  x    ?  x    ?                                       10338871      49.99%
   ??  x  ???  x   ??                                        1995552       9.65%
   ??  x   ??  x  ???                                        1252478       6.06%
  ???  x   ??  x   ??                                        1042125       5.04%
  ???  x    ?  x   ??                                         647745       3.13%
  ???  x   ??  x    ?                                         647745       3.13%
 >999  x   ??  x   ??                                         635200       3.07%
   ??  x   ??  x   ??                                         441348       2.13%
    ?  x   ??  x  ???                                         429607       2.08%
   ??  x    ?  x  ???                                         428866       2.07%
   ??  x   ??  x >999                                         425325       2.06%
  ???  x    ?  x    ?                                         399840       1.93%
 >999  x    ?  x   ??                                         394816       1.91%
 >999  x   ??  x    ?                                         394816       1.91%
    ?  x    ?  x  ???                                         267332       1.29%
    ?  x   ??  x >999                                         265410       1.28%
   ??  x    ?  x >999                                         265057       1.28%
 >999  x    ?  x    ?                                         243712       1.18%
    ?  x    ?  x >999                                         165154       0.80%
 -------------------------------------------------------------------------------

 -------------------------------------------------------------------------------
 -                                                                             -
 -                                GRID STATISTICS                              -
 -                                                                             -
 -------------------------------------------------------------------------------
 LP    KERNEL             BACKEND                              COUNT     PERCENT
 1     collocate ortho    CPU                                 170160      17.09%
 1     integrate ortho    CPU                                 170160      17.09%
 2     collocate ortho    CPU                                 139600      14.02%
 2     integrate ortho    CPU                                 139600      14.02%
 0     collocate ortho    CPU                                 102480      10.29%
 0     integrate ortho    CPU                                 102480      10.29%
 3     collocate ortho    CPU                                  57280       5.75%
 3     integrate ortho    CPU                                  57280       5.75%
 2     collocate general  CPU                                  16640       1.67%
 2     integrate general  CPU                                  16640       1.67%
 4     collocate ortho    CPU                                  11440       1.15%
 4     integrate ortho    CPU                                  11440       1.15%
 0     collocate general  CPU                                    208       0.02%
 0     integrate general  CPU                                    208       0.02%
 -------------------------------------------------------------------------------

 MEMORY| Estimated peak process memory [MiB]                                1970

 -------------------------------------------------------------------------------
 ----                             MULTIGRID INFO                            ----
 -------------------------------------------------------------------------------
 count for grid        1:         856585          cutoff [a.u.]          300.00
 count for grid        2:          90894          cutoff [a.u.]          100.00
 count for grid        3:          87303          cutoff [a.u.]           33.33
 count for grid        4:          32846          cutoff [a.u.]           11.11
 total gridlevel count  :        1067628

 -------------------------------------------------------------------------------
 -                                                                             -
 -                         MESSAGE PASSING PERFORMANCE                         -
 -                                                                             -
 -------------------------------------------------------------------------------

 ROUTINE             CALLS      AVE VOLUME [Bytes]
 MP_Group             4816
 MP_Bcast             4888                  14635.
 MP_Allreduce        11077                   5721.
 MP_Sync              5150
 MP_Alltoall          4853               30384738.
 MP_SendRecv          2400                 337600.
 MP_ISendRecv         4830                 178337.
 MP_Wait             20430
 MP_comm_split        2576
 MP_ISend            31835                 637259.
 MP_IRecv            31187                 642729.
 -------------------------------------------------------------------------------


 -------------------------------------------------------------------------------
 -                                                                             -
 -                           R E F E R E N C E S                               -
 -                                                                             -
 -------------------------------------------------------------------------------
 
 CP2K version 2024.3 (Development Version), the CP2K developers group (2024).
 CP2K is freely available from https://www.cp2k.org/ .
 
 M. Graml, K. Zollner, D. Hernangmez-Prez, P. E. Faria Junior, J. Wilhelm.
 J. Chem. Theory Comput. 20, 2202-2208 (2024).
 Low-scaling GW algorithm applied to twisted transition-metal dichalcogenide 
 heterobilayers.
 https://doi.org/10.1021/acs.jctc.3c01230

 T. D. Kuehne, M. Iannuzzi, M. Del Ben, V. V. Rybkin, P. Seewald, F. Stein, T. 
 Laino, R. Z. Khaliullin, O. Schuett, F. Schiffmann, D. Golze, J. Wilhelm, S. 
 Chulkov, M. H. Bani-Hashemian, V. Weber, U. Borstnik, M. Taillefumier, A. S. 
 Jakobovits, A. Lazzaro, H. Pabst, T. Mueller, R. Schade, M. Guidon, S. 
 Andermatt, N. Holmberg, G. K. Schenter, A. Hehn, A. Bussy, F. Belleflamme, G. 
 Tabacchi, A. Gloess, M. Lass, I. Bethune, C. J. Mundy, C. Plessl, M. Watkins, 
 J. VandeVondele, M. Krack, J. Hutter.
 J. Chem. Phys. 152, 194103 (2020).
 CP2K: An electronic structure and molecular dynamics software package - 
 Quickstep: Efficient and accurate electronic structure calculations.
 https://doi.org/10.1063/5.0007045

 O. Schuett, P. Messmer, J. Hutter, J. VandeVondele.
 Electronic Structure Calculations on Graphics Processing Units, 173-190 (2016).
 GPU-Accelerated Sparse Matrix-Matrix Multiplication for Linear Scaling Density 
 Functional Theory.
 https://doi.org/10.1002/9781118670712.ch8

 A. Heinecke, G. Henry, M. Hutchinson, H. Pabst.
 Proceedings of Intl. Supercomputing Conference, 981-991 (2016).
 LIBXSMM: Accelerating Small Matrix Multiplications by Runtime Code Generation.
 https://doi.org/10.1109/SC.2016.83

 J. Hutter, M. Iannuzzi, F. Schiffmann, J. VandeVondele.
 WIREs Comput Mol Sci. 4, 15-25 (2014).
 CP2K: atomistic simulations of condensed matter systems.
 https://doi.org/10.1002/wcms.1159

 U. Borstnik, J. VandeVondele, V. Weber, J. Hutter.
 Parallel Comput. 40, 47-58 (2014).
 Sparse matrix multiplication: The distributed block-compressed sparse row 
 library.
 https://doi.org/10.1016/j.parco.2014.03.012

 M. Guidon, J. Hutter, J. VandeVondele.
 J. Chem. Theory Comput. 5, 3010-3021 (2009).
 Robust Periodic Hartree-Fock Exchange for Large-Scale Simulations Using 
 Gaussian Basis Sets.
 https://doi.org/10.1021/ct900494g

 M. Guidon, F. Schiffmann, J. Hutter, J. VandeVondele.
 J. Chem. Phys. 128, 214104 (2008).
 Ab initio molecular dynamics using hybrid density functionals.
 https://doi.org/10.1063/1.2931945

 L. Genovese, T. Deutsch, S. Goedecker.
 J. Chem. Phys. 127, 054704 (2007).
 Efficient and accurate three-dimensional Poisson solver for surface problems.
 https://doi.org/10.1063/1.2754685

 L. Genovese, T. Deutsch, A. Neelov, S. Goedecker, G. Beylkin.
 J. Chem. Phys. 125, 074105 (2006).
 Efficient solution of Poisson's equation with free boundary conditions.
 https://doi.org/10.1063/1.2335442

 M. Frigo, S. G. Johnson.
 Proc. IEEE 93, 216-231 (2005).
 The design and implementation of FFTW3.
 https://doi.org/10.1109/JPROC.2004.840301

 M. Krack, M. Parrinello.
 Phys. Chem. Chem. Phys. 2, 2105-2112 (2000).
 All-electron ab-initio molecular dynamics.
 https://doi.org/10.1039/b001167n

 G. Lippert, J. Hutter, M. Parrinello.
 Theor. Chem. Acc. 103, 124-140 (1999).
 The Gaussian and augmented-plane-wave density functional method for ab initio 
 molecular dynamics simulations.
 https://doi.org/10.1007/s002140050523

 J. P. Perdew, K. Burke, M. Ernzerhof.
 Phys. Rev. Lett. 77, 3865-3868 (1996).
 Generalized gradient approximation made simple.
 https://doi.org/10.1103/PhysRevLett.77.3865


 -------------------------------------------------------------------------------
 -                                                                             -
 -                                T I M I N G                                  -
 -                                                                             -
 -------------------------------------------------------------------------------
 SUBROUTINE                       CALLS  ASD         SELF TIME        TOTAL TIME
                                MAXIMUM       AVERAGE  MAXIMUM  AVERAGE  MAXIMUM
 CP2K                                 1  1.0    0.023    0.027  361.819  361.821
 run_propagation_bse                  1  2.0    0.002    0.008  361.067  361.071
 qs_energies                          1  3.0    0.000    0.000  335.375  335.394
 scf_env_do_scf                       1  4.0    0.000    0.000  271.642  271.645
 scf_env_do_scf_inner_loop           79  5.0    0.002    0.005  271.642  271.645
 qs_ks_build_kohn_sham_matrix        80  8.0    0.013    0.014  218.776  218.779
 qs_ks_update_qs_env                 79  6.0    0.001    0.001  217.278  217.281
 rebuild_ks_matrix                   79  7.0    0.000    0.000  217.274  217.277
 fft_wrap_pw1pw2                   1671 11.0    0.038    0.044  136.069  142.067
 fft_wrap_pw1pw2_300               1191 12.1    5.894    6.086  132.134  138.120
 fft3d_ps                          1671 13.0   55.633   56.471  106.018  111.731
 qs_vxc_create                       80  9.0    0.001    0.001   86.380   86.381
 xc_vxc_pw_create                    79 10.0    1.205    1.275   86.379   86.380
 pw_poisson_solve                    80  9.0    1.861    1.957   66.263   66.284
 xc_pw_derive                       474 12.0    0.006    0.007   60.593   65.950
 qs_energies_properties               1  4.0    0.000    0.000   62.886   62.904
 post_scf_bandstructure               1  5.0    0.000    0.000   62.885   62.904
 gw                                   1  6.0    0.000    0.000   62.824   62.825
 gw_calc_large_cell_Gamma             1  7.0    0.000    0.000   59.254   59.290
 xc_rho_set_and_dset_create          79 11.0    0.952    1.056   44.240   47.277
 dbt_total                          805  8.9    0.006    0.006   46.251   46.251
 xc_pw_divergence                    79 11.0    0.004    0.004   40.391   45.817
 dbt_contract                       384  8.7    0.020    0.021   42.540   42.651
 dbt_tas_multiply                   738 11.1    0.002    0.002   37.685   37.767
 dbt_tas_total                      738 12.1    0.103    0.152   37.503   37.503
 ps_wavelet_solve                    80 10.0   32.731   33.265   37.102   37.165
 compute_3c_integrals               135  9.5    0.003    0.003   31.438   31.439
 qs_rho_update_rho_low               80  6.0    0.001    0.001   31.258   31.260
 calculate_rho_elec                  80  7.0    0.952    0.966   31.163   31.165
 get_Sigma_c                          1  8.0    0.001    0.002   30.331   30.332
 mp_alltoall_z22v                  1671 15.0   23.492   29.165   23.492   29.165
 yz_to_x                            797 13.8    9.681   10.165   22.936   28.339
 build_3c_integrals                 140 10.5   21.396   26.155   23.998   28.030
 x_to_yz                            874 14.1   17.190   17.856   27.427   27.882
 density_rs2pw                       80  8.0    0.005    0.005   25.025   25.295
 dbt_tas_dbm                        738 13.1    0.002    0.003   23.586   23.587
 get_mat_chi_Gamma_tau                1  8.0    0.001    0.002   23.259   23.296
 dbm_multiply                       738 15.1   21.306   23.015   21.306   23.015
 get_sigma                           57  4.0    0.002    0.002   22.817   22.817
 gspace_mixing                       78  6.0    0.928    0.942   22.403   22.403
 update_effective_ham                18  3.0    0.001    0.001   21.873   21.879
 contract_to_Sigma                   49  9.0    0.001    0.001   20.025   20.026
 sum_up_and_integrate                80  9.0    0.001    0.002   17.792   17.820
 mp_sync                           5150 11.8   12.558   17.606   12.558   17.606
 integrate_v_rspace                  80 10.0    0.003    0.003   17.298   17.378
 hfx_ks_matrix                       80  9.0    0.003    0.004   17.085   17.121
 integrate_four_center               80 10.0    1.816    1.907   17.068   17.099
 potential_pw2rs                     80 11.0    0.046    0.051   16.376   16.454
 xc_functional_eval                 553 11.4    0.001    0.002   11.840   14.794
 pbe_lda_eval                       553 12.4   11.839   14.793   11.839   14.793
 prepare_gapw_den                    80  9.0    0.002    0.002   13.934   14.000
 put_rho0_on_grid                    80 10.0    0.974    1.025   13.275   13.341
 broyden_mixing                      78  7.0   12.525   12.614   12.651   12.693
 compute_3c_and_contract_W           25  9.0    0.000    0.000   10.768   10.770
 integrate_four_center_main          80 11.0    0.093    0.136   10.254   10.460
 integrate_four_center_bin         8185 12.0   10.161   10.376   10.161   10.376
 pw_scatter_p                       874 13.1   10.128   10.256   10.128   10.256
 pw_gather_p                        797 12.8    8.893    9.399    8.893    9.399
 transfer_pw2rs                     401 11.6    0.006    0.006    8.961    8.988
 mp_waitany                        9640 12.5    8.056    8.228    8.056    8.228
 dbt_tas_mm_3N                      164 13.0    0.000    0.000    7.160    8.146
 pw_derive                          714 12.3    7.802    8.026    7.802    8.026
 dbt_tas_mm_2                       262 14.1    0.001    0.001    7.909    7.909
 transfer_rs2pw                     401  9.4    0.006    0.007    7.627    7.781
 -------------------------------------------------------------------------------

 The number of warnings for this run is : 4
 
 -------------------------------------------------------------------------------
  **** **** ******  **  PROGRAM ENDED AT                 2024-12-02 15:59:51.522
 ***** ** ***  *** **   PROGRAM RAN ON                              i01r03c02s09
 **    ****   ******    PROGRAM RAN BY                                   di75qec
 ***** **    ** ** **   PROGRAM PROCESS ID                                178559
  **** **  *******  **  PROGRAM STOPPED IN /hppfs/scratch/09/di75qec/Cytosine_sc
                                           f.4142575
