 DBCSR| CPU Multiplication driver                                           XSMM (U)
 DBCSR| Multrec recursion limit                                              512 (U)
 DBCSR| Multiplication stack size                                           1000 (D)
 DBCSR| Maximum elements for images                                    UNLIMITED (U)
 DBCSR| Multiplicative factor virtual images                                   1 (U)
 DBCSR| Use multiplication densification                                       T (D)
 DBCSR| Multiplication size stacks                                             3 (U)
 DBCSR| Use memory pool for CPU allocation                                     F (U)
 DBCSR| Number of 3D layers                                               SINGLE (U)
 DBCSR| Use MPI memory allocation                                              F (U)
 DBCSR| Use RMA algorithm                                                      F (U)
 DBCSR| Use Communication thread                                               T (U)
 DBCSR| Communication thread load                                             79 (D)
 DBCSR| MPI: My process id                                                     0
 DBCSR| MPI: Number of processes                                              16
 DBCSR| OMP: Current number of threads                                         3
 DBCSR| OMP: Max number of threads                                             3
 DBCSR| Split modifier for TAS multiplication algorithm                  1.0E+00 (U)


  **** **** ******  **  PROGRAM STARTED AT               2024-12-02 15:53:54.950
 ***** ** ***  *** **   PROGRAM STARTED ON                          i01r04c01s09
 **    ****   ******    PROGRAM STARTED BY                               di75qec
 ***** **    ** ** **   PROGRAM PROCESS ID                                  3304
  **** **  *******  **  PROGRAM STARTED IN /hppfs/scratch/09/di75qec/Pyrimidine_
                                           scf.4142589

 CP2K| version string:                 CP2K version 2024.3 (Development Version)
 CP2K| source code revision number:                                  git:29c2adf
 CP2K| cp2kflags: omp libint fftw3 libxc parallel scalapack xsmm max_contr=4    
 CP2K| is freely available from                            https://www.cp2k.org/
 CP2K| Program compiled at                       Thu 21 Nov 2024 04:40:02 PM CET
 CP2K| Program compiled on                                               login03
 CP2K| Program compiled for                                        Supermuc-foss
 CP2K| Data directory path               /dss/dsshome1/09/di75qec/CP2K-foss/data
 CP2K| Input file name                                                   scf.inp

 GLOBAL| Force Environment number                                              1
 GLOBAL| Basis set file name                                         aug-cc-pvdz
 GLOBAL| Potential file name                                      ALL_POTENTIALS
 GLOBAL| MM Potential file name                                     MM_POTENTIAL
 GLOBAL| Coordinate file name                                          coord.xyz
 GLOBAL| Method name                                                        CP2K
 GLOBAL| Project name                                                 Pyrimidine
 GLOBAL| Run type                                                 RT_PROPAGATION
 GLOBAL| FFT library                                                       FFTW3
 GLOBAL| Diagonalization library                                       ScaLAPACK
 GLOBAL| DGEMM library                                                      BLAS
 GLOBAL| Orthonormality check for eigenvectors                          DISABLED
 GLOBAL| Matrix multiplication library                                 ScaLAPACK
 GLOBAL| All-to-all communication in single precision                          F
 GLOBAL| FFTs using library dependent lengths                                  F
 GLOBAL| Grid backend                                                       AUTO
 GLOBAL| Global print level                                               MEDIUM
 GLOBAL| MPI I/O enabled                                                       T
 GLOBAL| Total number of message passing processes                            16
 GLOBAL| Number of threads for this process                                    3
 GLOBAL| This output is from process                                           0
 GLOBAL| Stack size for threads created by OpenMP (OMP_STACKSIZE)        default
 GLOBAL| CPU model name             Intel(R) Xeon(R) Platinum 8174 CPU @ 3.10GHz
 GLOBAL| CPUID                                                              1003
 GLOBAL| Compiled for CPUID                                                    0

 *** HINT in environment.F:921 :: The compiler target flags (generic) used ***
 *** to build this binary cannot exploit all extensions of this CPU model  ***
 *** (x86_avx512). Consider compiler target flags as part of FCFLAGS and   ***
 *** CFLAGS (ARCH file).                                                   ***


 MEMORY| system memory details [Kb]
 MEMORY|                        rank 0           min           max       average
 MEMORY| MemTotal             98436660      98436660      98436660      98436660
 MEMORY| MemFree              84201864      84201864      84201864      84201864
 MEMORY| Buffers                     0             0             0             0
 MEMORY| Cached                2355056       2355056       2355056       2355056
 MEMORY| Slab                  1126296       1126296       1126296       1126296
 MEMORY| SReclaimable           252032        252032        252032        252032
 MEMORY| MemLikelyFree        86808952      86808952      86808952      86808952


 *** Fundamental physical constants (SI units) ***

 *** Literature: B. J. Mohr and B. N. Taylor,
 ***             CODATA recommended values of the fundamental physical
 ***             constants: 2006, Web Version 5.1
 ***             http://physics.nist.gov/constants

 Speed of light in vacuum [m/s]                             2.99792458000000E+08
 Magnetic constant or permeability of vacuum [N/A**2]       1.25663706143592E-06
 Electric constant or permittivity of vacuum [F/m]          8.85418781762039E-12
 Planck constant (h) [J*s]                                  6.62606896000000E-34
 Planck constant (h-bar) [J*s]                              1.05457162825177E-34
 Elementary charge [C]                                      1.60217648700000E-19
 Electron mass [kg]                                         9.10938215000000E-31
 Electron g factor [ ]                                     -2.00231930436220E+00
 Proton mass [kg]                                           1.67262163700000E-27
 Fine-structure constant                                    7.29735253760000E-03
 Rydberg constant [1/m]                                     1.09737315685270E+07
 Avogadro constant [1/mol]                                  6.02214179000000E+23
 Boltzmann constant [J/K]                                   1.38065040000000E-23
 Atomic mass unit [kg]                                      1.66053878200000E-27
 Bohr radius [m]                                            5.29177208590000E-11

 *** Conversion factors ***

 [u] -> [a.u.]                                              1.82288848426455E+03
 [Angstrom] -> [Bohr] = [a.u.]                              1.88972613288564E+00
 [a.u.] = [Bohr] -> [Angstrom]                              5.29177208590000E-01
 [a.u.] -> [s]                                              2.41888432650478E-17
 [a.u.] -> [fs]                                             2.41888432650478E-02
 [a.u.] -> [J]                                              4.35974393937059E-18
 [a.u.] -> [N]                                              8.23872205491840E-08
 [a.u.] -> [K]                                              3.15774647902944E+05
 [a.u.] -> [kJ/mol]                                         2.62549961709828E+03
 [a.u.] -> [kcal/mol]                                       6.27509468713739E+02
 [a.u.] -> [Pa]                                             2.94210107994716E+13
 [a.u.] -> [bar]                                            2.94210107994716E+08
 [a.u.] -> [atm]                                            2.90362800883016E+08
 [a.u.] -> [eV]                                             2.72113838565563E+01
 [a.u.] -> [Hz]                                             6.57968392072181E+15
 [a.u.] -> [1/cm] (wave numbers)                            2.19474631370540E+05
 [a.u./Bohr**2] -> [1/cm]                                   5.14048714338585E+03
 

 CELL_TOP| Volume [angstrom^3]:                                      8000.000000
 CELL_TOP| Vector a [angstrom    20.000     0.000     0.000   |a| =    20.000000
 CELL_TOP| Vector b [angstrom     0.000    20.000     0.000   |b| =    20.000000
 CELL_TOP| Vector c [angstrom     0.000     0.000    20.000   |c| =    20.000000
 CELL_TOP| Angle (b,c), alpha [degree]:                                90.000000
 CELL_TOP| Angle (a,c), beta  [degree]:                                90.000000
 CELL_TOP| Angle (a,b), gamma [degree]:                                90.000000
 CELL_TOP| Numerically orthorhombic:                                         YES
 CELL_TOP| Periodicity                                                      NONE

 GENERATE|  Preliminary Number of Bonds generated:                             0
 GENERATE|  Achieved consistency in connectivity generation.

 CELL| Volume [angstrom^3]:                                          8000.000000
 CELL| Vector a [angstrom]:      20.000     0.000     0.000   |a| =    20.000000
 CELL| Vector b [angstrom]:       0.000    20.000     0.000   |b| =    20.000000
 CELL| Vector c [angstrom]:       0.000     0.000    20.000   |c| =    20.000000
 CELL| Angle (b,c), alpha [degree]:                                    90.000000
 CELL| Angle (a,c), beta  [degree]:                                    90.000000
 CELL| Angle (a,b), gamma [degree]:                                    90.000000
 CELL| Numerically orthorhombic:                                             YES
 CELL| Periodicity                                                          NONE

 CELL_REF| Volume [angstrom^3]:                                      8000.000000
 CELL_REF| Vector a [angstrom    20.000     0.000     0.000   |a| =    20.000000
 CELL_REF| Vector b [angstrom     0.000    20.000     0.000   |b| =    20.000000
 CELL_REF| Vector c [angstrom     0.000     0.000    20.000   |c| =    20.000000
 CELL_REF| Angle (b,c), alpha [degree]:                                90.000000
 CELL_REF| Angle (a,c), beta  [degree]:                                90.000000
 CELL_REF| Angle (a,b), gamma [degree]:                                90.000000
 CELL_REF| Numerically orthorhombic:                                         YES
 CELL_REF| Periodicity                                                      NONE

 *******************************************************************************
 *******************************************************************************
 **                                                                           **
 **     #####                         ##              ##                      **
 **    ##   ##            ##          ##              ##                      **
 **   ##     ##                       ##            ######                    **
 **   ##     ##  ##   ##  ##   #####  ##  ##   ####   ##    #####    #####    **
 **   ##     ##  ##   ##  ##  ##      ## ##   ##      ##   ##   ##  ##   ##   **
 **   ##  ## ##  ##   ##  ##  ##      ####     ###    ##   ######   ######    **
 **    ##  ###   ##   ##  ##  ##      ## ##      ##   ##   ##       ##        **
 **     #######   #####   ##   #####  ##  ##  ####    ##    #####   ##        **
 **           ##                                                    ##        **
 **                                                                           **
 **                                                ... make the atoms dance   **
 **                                                                           **
 **            Copyright (C) by CP2K developers group (2000-2024)             **
 **                      J. Chem. Phys. 152, 194103 (2020)                    **
 **                                                                           **
 *******************************************************************************

 DFT| Spin restricted Kohn-Sham (RKS) calculation                            RKS
 DFT| Multiplicity                                                             1
 DFT| Number of spin states                                                    1
 DFT| Charge                                                                   0
 DFT| Self-interaction correction (SIC)                                       NO
 DFT| Cutoffs: density                                              1.000000E-10
 DFT|          gradient                                             1.000000E-10
 DFT|          tau                                                  1.000000E-10
 DFT|          cutoff_smoothing_range                               0.000000E+00
 DFT| XC density smoothing                                                  NONE
 DFT| XC derivatives                                                          PW

 FUNCTIONAL| PBE:
 FUNCTIONAL| J.P.Perdew, K.Burke, M.Ernzerhof, Phys. Rev. Letter, vol. 77, n 18,
 FUNCTIONAL|  pp. 3865-3868, (1996)sx=0.750sc=1.000{spin unpolarized}           


 QS| Method:                                                                GAPW
 QS| Density plane wave grid type                        NON-SPHERICAL FULLSPACE
 QS| Number of grid levels:                                                    4
 QS| Density cutoff [a.u.]:                                                300.0
 QS| Multi grid cutoff [a.u.]: 1) grid level                               300.0
 QS|                           2) grid level                               100.0
 QS|                           3) grid level                                33.3
 QS|                           4) grid level                                11.1
 QS| Grid level progression factor:                                          3.0
 QS| Relative density cutoff [a.u.]:                                        30.0
 QS| Interaction thresholds: eps_pgf_orb:                                1.0E-05
 QS|                         eps_filter_matrix:                          0.0E+00
 QS|                         eps_core_charge:                            1.0E-12
 QS|                         eps_rho_gspace:                             1.0E-10
 QS|                         eps_rho_rspace:                             1.0E-10
 QS|                         eps_gvg_rspace:                             1.0E-05
 QS|                         eps_ppl:                                    1.0E-02
 QS|                         eps_ppnl:                                   1.0E-07
 QS| GAPW|      One center basis from orbital basis primitives
 QS| GAPW|                   eps_fit:                                    1.0E-04
 QS| GAPW|                   eps_iso:                                    1.0E-12
 QS| GAPW|                   eps_svd:                                    1.0E-08
 QS| GAPW|                   eps_cpc:                                    1.0E-10
 QS| GAPW|   atom-r-grid: quadrature:                                     GC_LOG
 QS| GAPW|      atom-s-grid:  max l :                                          4
 QS| GAPW|      max_l_rho0 :                                                   2


 ATOMIC KIND INFORMATION

  1. Atomic kind: H                                     Number of atoms:       4

     Orbital Basis Set                                               aug-cc-pvdz

       Number of orbital shell sets:                                           4
       Number of orbital shells:                                               5
       Number of primitive Cartesian functions:                                7
       Number of Cartesian basis functions:                                    9
       Number of spherical basis functions:                                    9
       Norm type:                                                              2

       Normalised Cartesian orbitals:

                        Set   Shell   Orbital            Exponent    Coefficient

                          1       1    1s               13.010000       0.096107
                                                         1.962000       0.163020
                                                         0.444600       0.185545
                                                         0.122000       0.073744

                          1       2    2s               13.010000       0.000000
                                                         1.962000       0.000000
                                                         0.444600       0.000000
                                                         0.122000       0.147123

                          2       1    1s                0.029740       0.051041

                          3       1    1px               0.727000       0.956881
                          3       1    1py               0.727000       0.956881
                          3       1    1pz               0.727000       0.956881

                          4       1    1px               0.141000       0.123158
                          4       1    1py               0.141000       0.123158
                          4       1    1pz               0.141000       0.123158

     RI Auxiliary Basis Set                                    aug-cc-pvdz-rifit

       Number of orbital shell sets:                                           9
       Number of orbital shells:                                               9
       Number of primitive Cartesian functions:                                9
       Number of Cartesian basis functions:                                   25
       Number of spherical basis functions:                                   23
       Norm type:                                                              2

       Normalised Cartesian orbitals:

                        Set   Shell   Orbital            Exponent    Coefficient

                          1       1    1s                5.115890       2.424381

                          2       1    1s                1.142965       0.787834

                          3       1    1s                0.291662       0.282859

                          4       1    1s                0.112720       0.138647

                          5       1    1px               1.914964       3.211004
                          5       1    1py               1.914964       3.211004
                          5       1    1pz               1.914964       3.211004

                          6       1    1px               0.986401       1.401222
                          6       1    1py               0.986401       1.401222
                          6       1    1pz               0.986401       1.401222

                          7       1    1px               0.285860       0.297942
                          7       1    1py               0.285860       0.297942
                          7       1    1pz               0.285860       0.297942

                          8       1    1dx2              1.172083       2.173136
                          8       1    1dxy              1.172083       3.763982
                          8       1    1dxz              1.172083       3.763982
                          8       1    1dy2              1.172083       2.173136
                          8       1    1dyz              1.172083       3.763982
                          8       1    1dz2              1.172083       2.173136

                          9       1    1dx2              0.303821       0.204640
                          9       1    1dxy              0.303821       0.354446
                          9       1    1dxz              0.303821       0.354446
                          9       1    1dy2              0.303821       0.204640
                          9       1    1dyz              0.303821       0.354446
                          9       1    1dz2              0.303821       0.204640

       Atomic covalent radius [Angstrom]:                                  0.320

       Atomic van der Waals radius [Angstrom]:                             1.090

     The atoms of this atomic kind are PAW atoms (GAPW):
       Hard Gaussian function radius:                                      1.200
       Rho0 radius:                                                        1.200
       Maximum GTO radius used for PAW projector construction:            24.566

     GAPW Soft Basis Set                                        aug-cc-pvdz_soft

       Number of orbital shell sets:                                           4
       Number of orbital shells:                                               5
       Number of primitive Cartesian functions:                                6
       Number of Cartesian basis functions:                                    9
       Number of spherical basis functions:                                    9
       Norm type:                                                              2

       Normalised Cartesian orbitals:

                        Set   Shell   Orbital            Exponent    Coefficient

                          1       1    1s                1.962000       0.163020
                                                         0.444600       0.185545
                                                         0.122000       0.073744

                          1       2    2s                1.962000       0.000000
                                                         0.444600       0.000000
                                                         0.122000       0.147123

                          2       1    1s                0.029740       0.051041

                          3       1    1px               0.727000       0.956881
                          3       1    1py               0.727000       0.956881
                          3       1    1pz               0.727000       0.956881

                          4       1    1px               0.141000       0.123158
                          4       1    1py               0.141000       0.123158
                          4       1    1pz               0.141000       0.123158

     AE Potential information for                                            ALL

       Description:                                       All-electron potential
                                          Krack, Parrinello, PCCP 2, 2105 (2000)

       Gaussian exponent of the core charge distribution:              12.500000
       Electronic configuration (s p d ...):                           1   0   0

  2. Atomic kind: C                                     Number of atoms:       4

     Orbital Basis Set                                               aug-cc-pvdz

       Number of orbital shell sets:                                           6
       Number of orbital shells:                                               9
       Number of primitive Cartesian functions:                               17
       Number of Cartesian basis functions:                                   25
       Number of spherical basis functions:                                   23
       Norm type:                                                              2

       Normalised Cartesian orbitals:

                        Set   Shell   Orbital            Exponent    Coefficient

                          1       1    1s             6665.000000       0.363803
                                                      1000.000000       0.675392
                                                       228.000000       1.132301
                                                        64.710000       1.654004
                                                        21.060000       1.924978
                                                         7.495000       1.448149
                                                         2.797000       0.439427
                                                         0.521500       0.006650
                                                         0.159600      -0.000574

                          1       2    2s             6665.000000      -0.076756
                                                      1000.000000      -0.146257
                                                       228.000000      -0.239407
                                                        64.710000      -0.379069
                                                        21.060000      -0.448104
                                                         7.495000      -0.484201
                                                         2.797000      -0.196168
                                                         0.521500       0.238162
                                                         0.159600       0.104468

                          1       3    3s             6665.000000       0.000000
                                                      1000.000000       0.000000
                                                       228.000000       0.000000
                                                        64.710000       0.000000
                                                        21.060000       0.000000
                                                         7.495000       0.000000
                                                         2.797000       0.000000
                                                         0.521500       0.000000
                                                         0.159600       0.179964

                          2       1    1s                0.046900       0.071827

                          3       1    1px               9.439000       0.898722
                                                         2.002000       0.711071
                                                         0.545600       0.339917
                                                         0.151700       0.063270
                          3       1    1py               9.439000       0.898722
                                                         2.002000       0.711071
                                                         0.545600       0.339917
                                                         0.151700       0.063270
                          3       1    1pz               9.439000       0.898722
                                                         2.002000       0.711071
                                                         0.545600       0.339917
                                                         0.151700       0.063270

                          3       2    2px               9.439000       0.000000
                                                         2.002000       0.000000
                                                         0.545600       0.000000
                                                         0.151700       0.134950
                          3       2    2py               9.439000       0.000000
                                                         2.002000       0.000000
                                                         0.545600       0.000000
                                                         0.151700       0.134950
                          3       2    2pz               9.439000       0.000000
                                                         2.002000       0.000000
                                                         0.545600       0.000000
                                                         0.151700       0.134950

                          4       1    1px               0.040410       0.025826
                          4       1    1py               0.040410       0.025826
                          4       1    1pz               0.040410       0.025826

                          5       1    1dx2              0.550000       0.578155
                          5       1    1dxy              0.550000       1.001394
                          5       1    1dxz              0.550000       1.001394
                          5       1    1dy2              0.550000       0.578155
                          5       1    1dyz              0.550000       1.001394
                          5       1    1dz2              0.550000       0.578155

                          6       1    1dx2              0.151000       0.060203
                          6       1    1dxy              0.151000       0.104275
                          6       1    1dxz              0.151000       0.104275
                          6       1    1dy2              0.151000       0.060203
                          6       1    1dyz              0.151000       0.104275
                          6       1    1dz2              0.151000       0.060203

     RI Auxiliary Basis Set                                    aug-cc-pvdz-rifit

       Number of orbital shell sets:                                          22
       Number of orbital shells:                                              22
       Number of primitive Cartesian functions:                               22
       Number of Cartesian basis functions:                                   86
       Number of spherical basis functions:                                   72
       Norm type:                                                              2

       Normalised Cartesian orbitals:

                        Set   Shell   Orbital            Exponent    Coefficient

                          1       1    1s               62.745300      15.888979

                          2       1    1s               13.804500       5.104176

                          3       1    1s                4.772770       2.301378

                          4       1    1s                1.513330       0.972434

                          5       1    1s                0.782697       0.593069

                          6       1    1s                0.409072       0.364552

                          7       1    1s                0.206796       0.218558

                          8       1    1s                0.073830       0.100945

                          9       1    1px              20.885100      63.640823
                          9       1    1py              20.885100      63.640823
                          9       1    1pz              20.885100      63.640823

                         10       1    1px               6.005230      13.399918
                         10       1    1py               6.005230      13.399918
                         10       1    1pz               6.005230      13.399918

                         11       1    1px               1.720600       2.808924
                         11       1    1py               1.720600       2.808924
                         11       1    1pz               1.720600       2.808924

                         12       1    1px               0.754465       1.002280
                         12       1    1py               0.754465       1.002280
                         12       1    1pz               0.754465       1.002280

                         13       1    1px               0.321667       0.345301
                         13       1    1py               0.321667       0.345301
                         13       1    1pz               0.321667       0.345301

                         14       1    1px               0.125953       0.106954
                         14       1    1py               0.125953       0.106954
                         14       1    1pz               0.125953       0.106954

                         15       1    1dx2             10.171500      95.352748
                         15       1    1dxy             10.171500     165.155804
                         15       1    1dxz             10.171500     165.155804
                         15       1    1dy2             10.171500      95.352748
                         15       1    1dyz             10.171500     165.155804
                         15       1    1dz2             10.171500      95.352748

                         16       1    1dx2              2.678440       9.230024
                         16       1    1dxy              2.678440      15.986870
                         16       1    1dxz              2.678440      15.986870
                         16       1    1dy2              2.678440       9.230024
                         16       1    1dyz              2.678440      15.986870
                         16       1    1dz2              2.678440       9.230024

                         17       1    1dx2              0.922515       1.429266
                         17       1    1dxy              0.922515       2.475561
                         17       1    1dxz              0.922515       2.475561
                         17       1    1dy2              0.922515       1.429266
                         17       1    1dyz              0.922515       2.475561
                         17       1    1dz2              0.922515       1.429266

                         18       1    1dx2              0.340842       0.250252
                         18       1    1dxy              0.340842       0.433449
                         18       1    1dxz              0.340842       0.433449
                         18       1    1dy2              0.340842       0.250252
                         18       1    1dyz              0.340842       0.433449
                         18       1    1dz2              0.340842       0.250252

                         19       1    1dx2              0.110211       0.034698
                         19       1    1dxy              0.110211       0.060099
                         19       1    1dxz              0.110211       0.060099
                         19       1    1dy2              0.110211       0.034698
                         19       1    1dyz              0.110211       0.060099
                         19       1    1dz2              0.110211       0.034698

                         20       1    1fx3              2.742930      14.254027
                         20       1    1fx2y             2.742930      31.872974
                         20       1    1fx2z             2.742930      31.872974
                         20       1    1fxy2             2.742930      31.872974
                         20       1    1fxyz             2.742930      55.205610
                         20       1    1fxz2             2.742930      31.872974
                         20       1    1fy3              2.742930      14.254027
                         20       1    1fy2z             2.742930      31.872974
                         20       1    1fyz2             2.742930      31.872974
                         20       1    1fz3              2.742930      14.254027

                         21       1    1fx3              0.895756       1.149162
                         21       1    1fx2y             0.895756       2.569605
                         21       1    1fx2z             0.895756       2.569605
                         21       1    1fxy2             0.895756       2.569605
                         21       1    1fxyz             0.895756       4.450686
                         21       1    1fxz2             0.895756       2.569605
                         21       1    1fy3              0.895756       1.149162
                         21       1    1fy2z             0.895756       2.569605
                         21       1    1fyz2             0.895756       2.569605
                         21       1    1fz3              0.895756       1.149162

                         22       1    1fx3              0.317146       0.111119
                         22       1    1fx2y             0.317146       0.248470
                         22       1    1fx2z             0.317146       0.248470
                         22       1    1fxy2             0.317146       0.248470
                         22       1    1fxyz             0.317146       0.430362
                         22       1    1fxz2             0.317146       0.248470
                         22       1    1fy3              0.317146       0.111119
                         22       1    1fy2z             0.317146       0.248470
                         22       1    1fyz2             0.317146       0.248470
                         22       1    1fz3              0.317146       0.111119

       Atomic covalent radius [Angstrom]:                                  0.770

       Atomic van der Waals radius [Angstrom]:                             1.700

     The atoms of this atomic kind are PAW atoms (GAPW):
       Hard Gaussian function radius:                                      1.512
       Rho0 radius:                                                        1.512
       Maximum GTO radius used for PAW projector construction:            24.566

     GAPW Soft Basis Set                                        aug-cc-pvdz_soft

       Number of orbital shell sets:                                           6
       Number of orbital shells:                                               9
       Number of primitive Cartesian functions:                               10
       Number of Cartesian basis functions:                                   25
       Number of spherical basis functions:                                   23
       Norm type:                                                              2

       Normalised Cartesian orbitals:

                        Set   Shell   Orbital            Exponent    Coefficient

                          1       1    1s                2.797000       0.439427
                                                         0.521500       0.006650
                                                         0.159600      -0.000574

                          1       2    2s                2.797000      -0.196168
                                                         0.521500       0.238162
                                                         0.159600       0.104468

                          1       3    3s                2.797000       0.000000
                                                         0.521500       0.000000
                                                         0.159600       0.179964

                          2       1    1s                0.046900       0.071827

                          3       1    1px               2.002000       0.711071
                                                         0.545600       0.339917
                                                         0.151700       0.063270
                          3       1    1py               2.002000       0.711071
                                                         0.545600       0.339917
                                                         0.151700       0.063270
                          3       1    1pz               2.002000       0.711071
                                                         0.545600       0.339917
                                                         0.151700       0.063270

                          3       2    2px               2.002000       0.000000
                                                         0.545600       0.000000
                                                         0.151700       0.134950
                          3       2    2py               2.002000       0.000000
                                                         0.545600       0.000000
                                                         0.151700       0.134950
                          3       2    2pz               2.002000       0.000000
                                                         0.545600       0.000000
                                                         0.151700       0.134950

                          4       1    1px               0.040410       0.025826
                          4       1    1py               0.040410       0.025826
                          4       1    1pz               0.040410       0.025826

                          5       1    1dx2              0.550000       0.578155
                          5       1    1dxy              0.550000       1.001394
                          5       1    1dxz              0.550000       1.001394
                          5       1    1dy2              0.550000       0.578155
                          5       1    1dyz              0.550000       1.001394
                          5       1    1dz2              0.550000       0.578155

                          6       1    1dx2              0.151000       0.060203
                          6       1    1dxy              0.151000       0.104275
                          6       1    1dxz              0.151000       0.104275
                          6       1    1dy2              0.151000       0.060203
                          6       1    1dyz              0.151000       0.104275
                          6       1    1dz2              0.151000       0.060203

     AE Potential information for                                            ALL

       Description:                                       All-electron potential
                                          Krack, Parrinello, PCCP 2, 2105 (2000)

       Gaussian exponent of the core charge distribution:               4.109048
       Electronic configuration (s p d ...):                           4   2   0

  3. Atomic kind: N                                     Number of atoms:       2

     Orbital Basis Set                                               aug-cc-pvdz

       Number of orbital shell sets:                                           6
       Number of orbital shells:                                               9
       Number of primitive Cartesian functions:                               17
       Number of Cartesian basis functions:                                   25
       Number of spherical basis functions:                                   23
       Norm type:                                                              2

       Normalised Cartesian orbitals:

                        Set   Shell   Orbital            Exponent    Coefficient

                          1       1    1s             9046.000000       0.462754
                                                      1357.000000       0.858723
                                                       309.300000       1.440591
                                                        87.730000       2.108533
                                                        28.560000       2.454153
                                                        10.210000       1.825915
                                                         3.838000       0.543758
                                                         0.746600       0.008838
                                                         0.224800      -0.000666

                          1       2    2s             9046.000000      -0.101145
                                                      1357.000000      -0.192492
                                                       309.300000      -0.314968
                                                        87.730000      -0.501437
                                                        28.560000      -0.593976
                                                        10.210000      -0.643503
                                                         3.838000      -0.238093
                                                         0.746600       0.314268
                                                         0.224800       0.134678

                          1       3    3s             9046.000000       0.000000
                                                      1357.000000       0.000000
                                                       309.300000       0.000000
                                                        87.730000       0.000000
                                                        28.560000       0.000000
                                                        10.210000       0.000000
                                                         3.838000       0.000000
                                                         0.746600       0.000000
                                                         0.224800       0.232679

                          2       1    1s                0.061240       0.087738

                          3       1    1px              13.550000       1.479258
                                                         2.917000       1.180072
                                                         0.797300       0.548036
                                                         0.218500       0.098423
                          3       1    1py              13.550000       1.479258
                                                         2.917000       1.180072
                                                         0.797300       0.548036
                                                         0.218500       0.098423
                          3       1    1pz              13.550000       1.479258
                                                         2.917000       1.180072
                                                         0.797300       0.548036
                                                         0.218500       0.098423

                          3       2    2px              13.550000       0.000000
                                                         2.917000       0.000000
                                                         0.797300       0.000000
                                                         0.218500       0.212939
                          3       2    2py              13.550000       0.000000
                                                         2.917000       0.000000
                                                         0.797300       0.000000
                                                         0.218500       0.212939
                          3       2    2pz              13.550000       0.000000
                                                         2.917000       0.000000
                                                         0.797300       0.000000
                                                         0.218500       0.212939

                          4       1    1px               0.056110       0.038926
                          4       1    1py               0.056110       0.038926
                          4       1    1pz               0.056110       0.038926

                          5       1    1dx2              0.817000       1.155575
                          5       1    1dxy              0.817000       2.001514
                          5       1    1dxz              0.817000       2.001514
                          5       1    1dy2              0.817000       1.155575
                          5       1    1dyz              0.817000       2.001514
                          5       1    1dz2              0.817000       1.155575

                          6       1    1dx2              0.230000       0.125728
                          6       1    1dxy              0.230000       0.217768
                          6       1    1dxz              0.230000       0.217768
                          6       1    1dy2              0.230000       0.125728
                          6       1    1dyz              0.230000       0.217768
                          6       1    1dz2              0.230000       0.125728

     RI Auxiliary Basis Set                                    aug-cc-pvdz-rifit

       Number of orbital shell sets:                                          22
       Number of orbital shells:                                              22
       Number of primitive Cartesian functions:                               22
       Number of Cartesian basis functions:                                   86
       Number of spherical basis functions:                                   72
       Norm type:                                                              2

       Normalised Cartesian orbitals:

                        Set   Shell   Orbital            Exponent    Coefficient

                          1       1    1s               87.686400      20.422517

                          2       1    1s               20.467900       6.858278

                          3       1    1s                7.624360       3.270112

                          4       1    1s                2.344260       1.350251

                          5       1    1s                1.123240       0.777615

                          6       1    1s                0.723539       0.559122

                          7       1    1s                0.327261       0.308376

                          8       1    1s                0.103612       0.130157

                          9       1    1px              29.237300      96.908455
                          9       1    1py              29.237300      96.908455
                          9       1    1pz              29.237300      96.908455

                         10       1    1px               8.552990      20.849111
                         10       1    1py               8.552990      20.849111
                         10       1    1pz               8.552990      20.849111

                         11       1    1px               2.533640       4.556393
                         11       1    1py               2.533640       4.556393
                         11       1    1pz               2.533640       4.556393

                         12       1    1px               1.094610       1.595932
                         12       1    1py               1.094610       1.595932
                         12       1    1pz               1.094610       1.595932

                         13       1    1px               0.461104       0.541613
                         13       1    1py               0.461104       0.541613
                         13       1    1pz               0.461104       0.541613

                         14       1    1px               0.169682       0.155233
                         14       1    1py               0.169682       0.155233
                         14       1    1pz               0.169682       0.155233

                         15       1    1dx2             12.327800     133.493224
                         15       1    1dxy             12.327800     231.217046
                         15       1    1dxz             12.327800     231.217046
                         15       1    1dy2             12.327800     133.493224
                         15       1    1dyz             12.327800     231.217046
                         15       1    1dz2             12.327800     133.493224

                         16       1    1dx2              3.428160      14.215638
                         16       1    1dxy              3.428160      24.622207
                         16       1    1dxz              3.428160      24.622207
                         16       1    1dy2              3.428160      14.215638
                         16       1    1dyz              3.428160      24.622207
                         16       1    1dz2              3.428160      14.215638

                         17       1    1dx2              1.285370       2.553929
                         17       1    1dxy              1.285370       4.423534
                         17       1    1dxz              1.285370       4.423534
                         17       1    1dy2              1.285370       2.553929
                         17       1    1dyz              1.285370       4.423534
                         17       1    1dz2              1.285370       2.553929

                         18       1    1dx2              0.477850       0.452033
                         18       1    1dxy              0.477850       0.782943
                         18       1    1dxz              0.477850       0.782943
                         18       1    1dy2              0.477850       0.452033
                         18       1    1dyz              0.477850       0.782943
                         18       1    1dz2              0.477850       0.452033

                         19       1    1dx2              0.133499       0.048529
                         19       1    1dxy              0.133499       0.084054
                         19       1    1dxz              0.133499       0.084054
                         19       1    1dy2              0.133499       0.048529
                         19       1    1dyz              0.133499       0.084054
                         19       1    1dz2              0.133499       0.048529

                         20       1    1fx3              3.401180      23.127095
                         20       1    1fx2y             3.401180      51.713757
                         20       1    1fx2z             3.401180      51.713757
                         20       1    1fxy2             3.401180      51.713757
                         20       1    1fxyz             3.401180      89.570854
                         20       1    1fxz2             3.401180      51.713757
                         20       1    1fy3              3.401180      23.127095
                         20       1    1fy2z             3.401180      51.713757
                         20       1    1fyz2             3.401180      51.713757
                         20       1    1fz3              3.401180      23.127095

                         21       1    1fx3              1.334730       2.818965
                         21       1    1fx2y             1.334730       6.303397
                         21       1    1fx2z             1.334730       6.303397
                         21       1    1fxy2             1.334730       6.303397
                         21       1    1fxyz             1.334730      10.917804
                         21       1    1fxz2             1.334730       6.303397
                         21       1    1fy3              1.334730       2.818965
                         21       1    1fy2z             1.334730       6.303397
                         21       1    1fyz2             1.334730       6.303397
                         21       1    1fz3              1.334730       2.818965

                         22       1    1fx3              0.419760       0.208789
                         22       1    1fx2y             0.419760       0.466866
                         22       1    1fx2z             0.419760       0.466866
                         22       1    1fxy2             0.419760       0.466866
                         22       1    1fxyz             0.419760       0.808636
                         22       1    1fxz2             0.419760       0.466866
                         22       1    1fy3              0.419760       0.208789
                         22       1    1fy2z             0.419760       0.466866
                         22       1    1fyz2             0.419760       0.466866
                         22       1    1fz3              0.419760       0.208789

       Atomic covalent radius [Angstrom]:                                  0.750

       Atomic van der Waals radius [Angstrom]:                             1.550

     The atoms of this atomic kind are PAW atoms (GAPW):
       Hard Gaussian function radius:                                      1.512
       Rho0 radius:                                                        1.512
       Maximum GTO radius used for PAW projector construction:            24.566

     GAPW Soft Basis Set                                        aug-cc-pvdz_soft

       Number of orbital shell sets:                                           6
       Number of orbital shells:                                               9
       Number of primitive Cartesian functions:                               10
       Number of Cartesian basis functions:                                   25
       Number of spherical basis functions:                                   23
       Norm type:                                                              2

       Normalised Cartesian orbitals:

                        Set   Shell   Orbital            Exponent    Coefficient

                          1       1    1s                3.838000       0.543758
                                                         0.746600       0.008838
                                                         0.224800      -0.000666

                          1       2    2s                3.838000      -0.238093
                                                         0.746600       0.314268
                                                         0.224800       0.134678

                          1       3    3s                3.838000       0.000000
                                                         0.746600       0.000000
                                                         0.224800       0.232679

                          2       1    1s                0.061240       0.087738

                          3       1    1px               2.917000       1.180072
                                                         0.797300       0.548036
                                                         0.218500       0.098423
                          3       1    1py               2.917000       1.180072
                                                         0.797300       0.548036
                                                         0.218500       0.098423
                          3       1    1pz               2.917000       1.180072
                                                         0.797300       0.548036
                                                         0.218500       0.098423

                          3       2    2px               2.917000       0.000000
                                                         0.797300       0.000000
                                                         0.218500       0.212939
                          3       2    2py               2.917000       0.000000
                                                         0.797300       0.000000
                                                         0.218500       0.212939
                          3       2    2pz               2.917000       0.000000
                                                         0.797300       0.000000
                                                         0.218500       0.212939

                          4       1    1px               0.056110       0.038926
                          4       1    1py               0.056110       0.038926
                          4       1    1pz               0.056110       0.038926

                          5       1    1dx2              0.817000       1.155575
                          5       1    1dxy              0.817000       2.001514
                          5       1    1dxz              0.817000       2.001514
                          5       1    1dy2              0.817000       1.155575
                          5       1    1dyz              0.817000       2.001514
                          5       1    1dz2              0.817000       1.155575

                          6       1    1dx2              0.230000       0.125728
                          6       1    1dxy              0.230000       0.217768
                          6       1    1dxz              0.230000       0.217768
                          6       1    1dy2              0.230000       0.125728
                          6       1    1dyz              0.230000       0.217768
                          6       1    1dz2              0.230000       0.125728

     AE Potential information for                                            ALL

       Description:                                       All-electron potential
                                          Krack, Parrinello, PCCP 2, 2105 (2000)

       Gaussian exponent of the core charge distribution:               5.979100
       Electronic configuration (s p d ...):                           4   3   0


 MOLECULE KIND INFORMATION


 All atoms are their own molecule, skipping detailed information


 TOTAL NUMBERS AND MAXIMUM NUMBERS

  Total number of            - Atomic kinds:                                   3
                             - Atoms:                                         10
                             - Shell sets:                                    52
                             - Shells:                                        74
                             - Primitive Cartesian functions:                130
                             - Cartesian basis functions:                    186
                             - Spherical basis functions:                    174

  Maximum angular momentum of the orbital basis functions:                     2


 MODULE QUICKSTEP: ATOMIC COORDINATES IN ANGSTROM

   Atom Kind Element         X             Y             Z       Z(eff)     Mass
      1    1 H     1     10.000000     12.156588     11.100191   1.0000   1.0079
      2    1 H     1     10.000000      7.843412     11.100191   1.0000   1.0079
      3    1 H     1     10.000000     10.000000      7.579606   1.0000   1.0079
      4    1 H     1     10.000000     10.000000     12.420394   1.0000   1.0079
      5    2 C     6     10.000000     11.186684     10.606205   6.0000  12.0107
      6    2 C     6     10.000000      8.813316     10.606204   6.0000  12.0107
      7    2 C     6     10.000000     10.000000      8.667366   6.0000  12.0107
      8    2 C     6     10.000000     10.000000     11.334940   6.0000  12.0107
      9    3 N     7     10.000000     11.203523      9.262210   7.0000  14.0067
     10    3 N     7     10.000000      8.796477      9.262210   7.0000  14.0067



 SCF PARAMETERS         Density guess:                                   RESTART
                        --------------------------------------------------------
                        max_scf:                                             200
                        max_scf_history:                                       0
                        max_diis:                                              4
                        --------------------------------------------------------
                        eps_scf:                                        1.00E-09
                        eps_scf_history:                                0.00E+00
                        eps_diis:                                       1.00E-01
                        eps_eigval:                                     1.00E-05
                        --------------------------------------------------------
                        level_shift [a.u.]:                             0.000000
                        added MOs                                       153    0
                        --------------------------------------------------------
                        Mixing method:                            BROYDEN_MIXING
                                                charge density mixing in g-space
                        --------------------------------------------------------
                        No outer SCF

 PW_GRID| Information for grid number                                          1
 PW_GRID| Grid distributed over                                    16 processors
 PW_GRID| Real space group dimensions                                    16    1
 PW_GRID| the grid is blocked:                                                NO
 PW_GRID| Cutoff [a.u.]                                                    300.0
 PW_GRID| spherical cutoff:                                                   NO
 PW_GRID|   Bounds   1           -150     149                Points:         300
 PW_GRID|   Bounds   2           -150     149                Points:         300
 PW_GRID|   Bounds   3           -150     149                Points:         300
 PW_GRID| Volume element (a.u.^3)  0.2000E-02     Volume (a.u.^3)     53986.6767
 PW_GRID| Grid span                                                    FULLSPACE
 PW_GRID|   Distribution                         Average         Max         Min
 PW_GRID|   G-Vectors                          1687500.0     1687500     1687500
 PW_GRID|   G-Rays                                5625.0        5625        5625
 PW_GRID|   Real Space Points                  1687500.0     1710000     1620000

 PW_GRID| Information for grid number                                          2
 PW_GRID| Number of the reference grid                                         1
 PW_GRID| Grid distributed over                                    16 processors
 PW_GRID| Real space group dimensions                                    16    1
 PW_GRID| the grid is blocked:                                                NO
 PW_GRID| Cutoff [a.u.]                                                    100.0
 PW_GRID| spherical cutoff:                                                   NO
 PW_GRID|   Bounds   1            -90      89                Points:         180
 PW_GRID|   Bounds   2            -90      89                Points:         180
 PW_GRID|   Bounds   3            -90      89                Points:         180
 PW_GRID| Volume element (a.u.^3)  0.9257E-02     Volume (a.u.^3)     53986.6767
 PW_GRID| Grid span                                                    FULLSPACE
 PW_GRID|   Distribution                         Average         Max         Min
 PW_GRID|   G-Vectors                           364500.0      364680      364320
 PW_GRID|   G-Rays                                2025.0        2026        2024
 PW_GRID|   Real Space Points                   364500.0      388800      356400

 PW_GRID| Information for grid number                                          3
 PW_GRID| Number of the reference grid                                         1
 PW_GRID| Grid distributed over                                    16 processors
 PW_GRID| Real space group dimensions                                    16    1
 PW_GRID| the grid is blocked:                                                NO
 PW_GRID| Cutoff [a.u.]                                                     33.3
 PW_GRID| spherical cutoff:                                                   NO
 PW_GRID|   Bounds   1            -50      49                Points:         100
 PW_GRID|   Bounds   2            -50      49                Points:         100
 PW_GRID|   Bounds   3            -50      49                Points:         100
 PW_GRID| Volume element (a.u.^3)  0.5399E-01     Volume (a.u.^3)     53986.6767
 PW_GRID| Grid span                                                    FULLSPACE
 PW_GRID|   Distribution                         Average         Max         Min
 PW_GRID|   G-Vectors                            62500.0       62600       62400
 PW_GRID|   G-Rays                                 625.0         626         624
 PW_GRID|   Real Space Points                    62500.0       70000       60000

 PW_GRID| Information for grid number                                          4
 PW_GRID| Number of the reference grid                                         1
 PW_GRID| Grid distributed over                                    16 processors
 PW_GRID| Real space group dimensions                                    16    1
 PW_GRID| the grid is blocked:                                                NO
 PW_GRID| Cutoff [a.u.]                                                     11.1
 PW_GRID| spherical cutoff:                                                   NO
 PW_GRID|   Bounds   1            -30      29                Points:          60
 PW_GRID|   Bounds   2            -30      29                Points:          60
 PW_GRID|   Bounds   3            -30      29                Points:          60
 PW_GRID| Volume element (a.u.^3)  0.2499         Volume (a.u.^3)     53986.6767
 PW_GRID| Grid span                                                    FULLSPACE
 PW_GRID|   Distribution                         Average         Max         Min
 PW_GRID|   G-Vectors                            13500.0       13560       13440
 PW_GRID|   G-Rays                                 225.0         226         224
 PW_GRID|   Real Space Points                    13500.0       14400       10800

 POISSON| Solver                                                         WAVELET
 POISSON| Wavelet| Scaling function                                           40
 POISSON| Periodicity                                                       NONE

 RS_GRID| Information for grid number                                          1
 RS_GRID|   Bounds   1           -150     149                Points:         300
 RS_GRID|   Bounds   2           -150     149                Points:         300
 RS_GRID|   Bounds   3           -150     149                Points:         300
 RS_GRID| Real space distribution over                                  4 groups
 RS_GRID| Real space distribution along direction                              2
 RS_GRID| Border size                                                         24
 RS_GRID| Real space distribution over                                  4 groups
 RS_GRID| Real space distribution along direction                              3
 RS_GRID| Border size                                                         24
 RS_GRID|   Distribution                         Average         Max         Min
 RS_GRID|   Planes                                 123.0         123         123
 RS_GRID|   Distribution                         Average         Max         Min
 RS_GRID|   Planes                                 123.0         123         123

 RS_GRID| Information for grid number                                          2
 RS_GRID|   Bounds   1            -90      89                Points:         180
 RS_GRID|   Bounds   2            -90      89                Points:         180
 RS_GRID|   Bounds   3            -90      89                Points:         180
 RS_GRID| Real space distribution over                                  4 groups
 RS_GRID| Real space distribution along direction                              2
 RS_GRID| Border size                                                         25
 RS_GRID| Real space distribution over                                  4 groups
 RS_GRID| Real space distribution along direction                              3
 RS_GRID| Border size                                                         25
 RS_GRID|   Distribution                         Average         Max         Min
 RS_GRID|   Planes                                  95.0          95          95
 RS_GRID|   Distribution                         Average         Max         Min
 RS_GRID|   Planes                                  95.0          95          95

 RS_GRID| Information for grid number                                          3
 RS_GRID|   Bounds   1            -50      49                Points:         100
 RS_GRID|   Bounds   2            -50      49                Points:         100
 RS_GRID|   Bounds   3            -50      49                Points:         100
 RS_GRID| Real space fully replicated
 RS_GRID| Group size                                                           1

 RS_GRID| Information for grid number                                          4
 RS_GRID|   Bounds   1            -30      29                Points:          60
 RS_GRID|   Bounds   2            -30      29                Points:          60
 RS_GRID|   Bounds   3            -30      29                Points:          60
 RS_GRID| Real space fully replicated
 RS_GRID| Group size                                                           1

  HFX_INFO| Replica ID:                                                        1
  HFX_INFO| FRACTION:                                               0.2500000000
  HFX_INFO| Interaction Potential:                                       COULOMB
  HFX_INFO| EPS_SCHWARZ:                                                 1.0E-10
  HFX_INFO| EPS_SCHWARZ_FORCES                                           1.0E-08
  HFX_INFO| EPS_STORAGE_SCALING:                                         1.0E+00
  HFX_INFO| NBINS:                                                            64
  HFX_INFO| BLOCK_SIZE:                                                        1
  HFX_INFO| Number of periodic shells considered:                           NONE
  HFX_INFO| Number of periodic cells considered:                            NONE


 Number of electrons:                                                         42
 Number of occupied orbitals:                                                 21
 Number of molecular orbitals:                                               174

 Number of orbital functions:                                                174
 Number of independent orbital functions:                                    174

 Extrapolation method: initial_guess

 *** WARNING in qs_initial_guess.F:306 :: User requested to restart the   ***
 *** wavefunction from the file named: Pyrimidine-RESTART.wfn. This file  ***
 *** does not exist. Please check the existence of the file or change     ***
 *** properly the value of the keyword WFN_RESTART_FILE_NAME. Calculation ***
 *** continues using ATOMIC GUESS.                                        ***


 Atomic guess: The first density matrix is obtained in terms of atomic orbitals
               and electronic configurations assigned to each atomic kind

 Guess for atomic kind: H

 Electronic structure
    Total number of core electrons                                          0.00
    Total number of valence electrons                                       1.00
    Total number of electrons                                               1.00
    Multiplicity                                                   not specified
    S      1.00


 *******************************************************************************
                  Iteration          Convergence                     Energy [au]
 *******************************************************************************
                          1        0.880988E-02                  -0.444778274653
                          2        0.791349E-03                  -0.444877834394
                          3        0.111042E-03                  -0.444880192149
                          4        0.306660E-07                  -0.444880212296

 Energy components [Hartree]           Total Energy ::           -0.444880212296
                                        Band Energy ::           -0.232361879729
                                     Kinetic Energy ::            0.420568354334
                                   Potential Energy ::           -0.865448566630
                                      Virial (-V/T) ::            2.057807150044
                                        Core Energy ::           -0.495477856147
                                          XC Energy ::           -0.232385335983
                                     Coulomb Energy ::            0.282982979834

 Orbital energies  State     L     Occupation   Energy[a.u.]          Energy[eV]

                       1     0          1.000      -0.232362           -6.322888


 Total Electron Density at R=0:                                         0.221399

 Guess for atomic kind: C

 Electronic structure
    Total number of core electrons                                          0.00
    Total number of valence electrons                                       6.00
    Total number of electrons                                               6.00
    Multiplicity                                                   not specified
    S      2.00  2.00
    P      2.00


 *******************************************************************************
                  Iteration          Convergence                     Energy [au]
 *******************************************************************************
                          1        0.121977                     -37.400018089324
                          2        0.904329E-01                 -37.406032348656
                          3        0.638681E-03                 -37.414959418976
                          4        0.141121E-03                 -37.414959795862
                          5        0.446247E-06                 -37.414959815731

 Energy components [Hartree]           Total Energy ::          -37.414959815731
                                        Band Energy ::          -21.286259476185
                                     Kinetic Energy ::           37.482739917864
                                   Potential Energy ::          -74.897699733595
                                      Virial (-V/T) ::            1.998191698305
                                        Core Energy ::          -50.304318516063
                                          XC Energy ::           -4.741579470163
                                     Coulomb Energy ::           17.630938170495

 Orbital energies  State     L     Occupation   Energy[a.u.]          Energy[eV]

                       1     0          2.000      -9.942952         -270.561481
                       2     0          2.000      -0.501864          -13.656426

                       1     1          2.000      -0.198313           -5.396382


 Total Electron Density at R=0:                                       121.940282

 Guess for atomic kind: N

 Electronic structure
    Total number of core electrons                                          0.00
    Total number of valence electrons                                       7.00
    Total number of electrons                                               7.00
    Multiplicity                                                   not specified
    S      2.00  2.00
    P      3.00


 *******************************************************************************
                  Iteration          Convergence                     Energy [au]
 *******************************************************************************
                          1        0.324015                     -53.962160635180
                          2        0.303793                     -53.968191480532
                          3        0.419977E-02                 -54.007027300491
                          4        0.499184E-03                 -54.007041130238
                          5        0.777606E-05                 -54.007041218366
                          6        0.741085E-07                 -54.007041218391

 Energy components [Hartree]           Total Energy ::          -54.007041218391
                                        Band Energy ::          -30.179796805617
                                     Kinetic Energy ::           54.022800604949
                                   Potential Energy ::         -108.029841823340
                                      Virial (-V/T) ::            1.999708282681
                                        Core Energy ::          -73.637352250568
[...]
 flops     9 x     9 x    46              5812560       0.0%    100.0%      0.0%     
 flops     9 x     9 x    64              8087040       0.0%    100.0%      0.0%     
 flops     9 x     9 x    32              8087040       0.0%    100.0%      0.0%     
 flops    23 x   128 x   118              8337408       0.0%    100.0%      0.0%     
 flops    23 x   128 x   144             10174464       0.0%    100.0%      0.0%     
 flops    95 x   140 x   118             12555200       0.0%    100.0%      0.0%     
 flops    95 x   140 x   144             15321600       0.0%    100.0%      0.0%     
 flops    23 x     9 x    46             17825184       0.0%    100.0%      0.0%     
 flops     9 x    23 x    46             17825184       0.0%    100.0%      0.0%     
 flops   144 x   140 x   118             19031040       0.0%    100.0%      0.0%     
 flops   144 x   140 x   144             23224320       0.0%    100.0%      0.0%     
 flops    23 x     9 x    64             24800256       0.0%    100.0%      0.0%     
 flops     9 x    23 x    64             24800256       0.0%    100.0%      0.0%     
 flops    23 x     9 x    32             24800256       0.0%    100.0%      0.0%     
 flops     9 x    23 x    32             24800256       0.0%    100.0%      0.0%     
 flops    95 x   128 x   118             34437120       0.0%    100.0%      0.0%     
 flops    95 x   128 x   144             42024960       0.0%    100.0%      0.0%     
 flops   144 x   128 x   118             52199424       0.0%    100.0%      0.0%     
 flops   144 x   128 x   144             63700992       0.0%    100.0%      0.0%     
 flops    23 x    23 x    46             79718184       0.0%    100.0%      0.0%     
 flops    23 x    23 x    64            110912256       0.0%    100.0%      0.0%     
 flops    23 x    23 x    32            110912256       0.0%    100.0%      0.0%     
 flops inhomo. stacks                           0       0.0%      0.0%      0.0%
 flops total                       746.136376E+06       0.0%    100.0%      0.0%
 flops max/rank                     62.394264E+06       0.0%    100.0%      0.0%
 matmuls inhomo. stacks                         0       0.0%      0.0%      0.0%
 matmuls total                              17256       0.0%    100.0%      0.0%
 number of processed stacks                 12264       0.0%    100.0%      0.0%
 average stack size                                     0.0       1.4       0.0
 marketing flops                   386.939840E+06
 -------------------------------------------------------------------------------
 # multiplications                             79
 max memory usage/rank               1.917137E+09
 # max total images/rank                        1
 # max 3D layers                                1
 # MPI messages exchanged                    7584
 MPI messages size (bytes):
  total size                       126.532992E+06
  min size                          10.496000E+03
  max size                         165.888000E+03
  average size                      16.684203E+03
 MPI breakdown and total messages size (bytes):
             size <=      128                   0                        0
       128 < size <=     8192                   0                        0
      8192 < size <=    32768                7488                113353344
     32768 < size <=   131072                  30                  3511680
    131072 < size <=  4194304                  66                  9667968
   4194304 < size <= 16777216                   0                        0
  16777216 < size                               0                        0
 -------------------------------------------------------------------------------
 -                                                                             -
 -                      DBCSR MESSAGE PASSING PERFORMANCE                      -
 -                                                                             -
 -------------------------------------------------------------------------------
 ROUTINE             CALLS      AVE VOLUME [Bytes]
 MP_Bcast               25                     12.
 MP_Allreduce          702                     10.
 MP_Alltoall          7164                  13678.
 MP_ISend             1264                   6503.
 MP_IRecv             1264                   5208.
 -------------------------------------------------------------------------------

 -------------------------------------------------------------------------------
 -                                                                             -
 -                                DBM STATISTICS                               -
 -                                                                             -
 -------------------------------------------------------------------------------
    M  x    N  x    K                                          COUNT     PERCENT
    ?  x    ?  x    ?                                        3604263      49.99%
   ??  x  ???  x   ??                                         697200       9.67%
   ??  x   ??  x  ???                                         426625       5.92%
  ???  x   ??  x   ??                                         353792       4.91%
  ???  x    ?  x   ??                                         231936       3.22%
  ???  x   ??  x    ?                                         231936       3.22%
 >999  x   ??  x   ??                                         199008       2.76%
   ??  x   ??  x   ??                                         167175       2.32%
    ?  x   ??  x  ???                                         158982       2.21%
   ??  x    ?  x  ???                                         158746       2.20%
  ???  x    ?  x    ?                                         153088       2.12%
   ??  x   ??  x >999                                         134788       1.87%
 >999  x    ?  x   ??                                         130464       1.81%
 >999  x   ??  x    ?                                         130464       1.81%
    ?  x    ?  x  ???                                         105579       1.46%
    ?  x   ??  x >999                                          89856       1.25%
   ??  x    ?  x >999                                          89856       1.25%
 >999  x    ?  x    ?                                          86112       1.19%
    ?  x    ?  x >999                                          59904       0.83%
 -------------------------------------------------------------------------------

 -------------------------------------------------------------------------------
 -                                                                             -
 -                                GRID STATISTICS                              -
 -                                                                             -
 -------------------------------------------------------------------------------
 LP    KERNEL             BACKEND                              COUNT     PERCENT
 1     collocate ortho    CPU                                 107124      17.18%
 1     integrate ortho    CPU                                 107124      17.18%
 2     collocate ortho    CPU                                  85399      13.70%
 2     integrate ortho    CPU                                  85399      13.70%
 0     collocate ortho    CPU                                  65649      10.53%
 0     integrate ortho    CPU                                  65649      10.53%
 3     collocate ortho    CPU                                  34128       5.47%
 3     integrate ortho    CPU                                  34128       5.47%
 2     collocate general  CPU                                  12640       2.03%
 2     integrate general  CPU                                  12640       2.03%
 4     collocate ortho    CPU                                   6636       1.06%
 4     integrate ortho    CPU                                   6636       1.06%
 0     collocate general  CPU                                    160       0.03%
 0     integrate general  CPU                                    160       0.03%
 -------------------------------------------------------------------------------

 MEMORY| Estimated peak process memory [MiB]                                1836

 -------------------------------------------------------------------------------
 ----                             MULTIGRID INFO                            ----
 -------------------------------------------------------------------------------
 count for grid        1:         400145          cutoff [a.u.]          300.00
 count for grid        2:          45390          cutoff [a.u.]          100.00
 count for grid        3:          51877          cutoff [a.u.]           33.33
 count for grid        4:          22452          cutoff [a.u.]           11.11
 total gridlevel count  :         519864

 -------------------------------------------------------------------------------
 -                                                                             -
 -                         MESSAGE PASSING PERFORMANCE                         -
 -                                                                             -
 -------------------------------------------------------------------------------

 ROUTINE             CALLS      AVE VOLUME [Bytes]
 MP_Group             4830
 MP_Bcast             4460                  12097.
 MP_Allreduce        10400                   4563.
 MP_Sync              5149
 MP_Alltoall          4864               29930400.
 MP_SendRecv          2370                 337600.
 MP_ISendRecv         4770                 174066.
 MP_Wait             20527
 MP_comm_split        2677
 MP_ISend            24085                 695466.
 MP_IRecv            23899                 700990.
 -------------------------------------------------------------------------------


 -------------------------------------------------------------------------------
 -                                                                             -
 -                           R E F E R E N C E S                               -
 -                                                                             -
 -------------------------------------------------------------------------------
 
 CP2K version 2024.3 (Development Version), the CP2K developers group (2024).
 CP2K is freely available from https://www.cp2k.org/ .
 
 M. Graml, K. Zollner, D. Hernangmez-Prez, P. E. Faria Junior, J. Wilhelm.
 J. Chem. Theory Comput. 20, 2202-2208 (2024).
 Low-scaling GW algorithm applied to twisted transition-metal dichalcogenide 
 heterobilayers.
 https://doi.org/10.1021/acs.jctc.3c01230

 T. D. Kuehne, M. Iannuzzi, M. Del Ben, V. V. Rybkin, P. Seewald, F. Stein, T. 
 Laino, R. Z. Khaliullin, O. Schuett, F. Schiffmann, D. Golze, J. Wilhelm, S. 
 Chulkov, M. H. Bani-Hashemian, V. Weber, U. Borstnik, M. Taillefumier, A. S. 
 Jakobovits, A. Lazzaro, H. Pabst, T. Mueller, R. Schade, M. Guidon, S. 
 Andermatt, N. Holmberg, G. K. Schenter, A. Hehn, A. Bussy, F. Belleflamme, G. 
 Tabacchi, A. Gloess, M. Lass, I. Bethune, C. J. Mundy, C. Plessl, M. Watkins, 
 J. VandeVondele, M. Krack, J. Hutter.
 J. Chem. Phys. 152, 194103 (2020).
 CP2K: An electronic structure and molecular dynamics software package - 
 Quickstep: Efficient and accurate electronic structure calculations.
 https://doi.org/10.1063/5.0007045

 O. Schuett, P. Messmer, J. Hutter, J. VandeVondele.
 Electronic Structure Calculations on Graphics Processing Units, 173-190 (2016).
 GPU-Accelerated Sparse Matrix-Matrix Multiplication for Linear Scaling Density 
 Functional Theory.
 https://doi.org/10.1002/9781118670712.ch8

 A. Heinecke, G. Henry, M. Hutchinson, H. Pabst.
 Proceedings of Intl. Supercomputing Conference, 981-991 (2016).
 LIBXSMM: Accelerating Small Matrix Multiplications by Runtime Code Generation.
 https://doi.org/10.1109/SC.2016.83

 J. Hutter, M. Iannuzzi, F. Schiffmann, J. VandeVondele.
 WIREs Comput Mol Sci. 4, 15-25 (2014).
 CP2K: atomistic simulations of condensed matter systems.
 https://doi.org/10.1002/wcms.1159

 U. Borstnik, J. VandeVondele, V. Weber, J. Hutter.
 Parallel Comput. 40, 47-58 (2014).
 Sparse matrix multiplication: The distributed block-compressed sparse row 
 library.
 https://doi.org/10.1016/j.parco.2014.03.012

 M. Guidon, J. Hutter, J. VandeVondele.
 J. Chem. Theory Comput. 5, 3010-3021 (2009).
 Robust Periodic Hartree-Fock Exchange for Large-Scale Simulations Using 
 Gaussian Basis Sets.
 https://doi.org/10.1021/ct900494g

 M. Guidon, F. Schiffmann, J. Hutter, J. VandeVondele.
 J. Chem. Phys. 128, 214104 (2008).
 Ab initio molecular dynamics using hybrid density functionals.
 https://doi.org/10.1063/1.2931945

 L. Genovese, T. Deutsch, S. Goedecker.
 J. Chem. Phys. 127, 054704 (2007).
 Efficient and accurate three-dimensional Poisson solver for surface problems.
 https://doi.org/10.1063/1.2754685

 L. Genovese, T. Deutsch, A. Neelov, S. Goedecker, G. Beylkin.
 J. Chem. Phys. 125, 074105 (2006).
 Efficient solution of Poisson's equation with free boundary conditions.
 https://doi.org/10.1063/1.2335442

 M. Frigo, S. G. Johnson.
 Proc. IEEE 93, 216-231 (2005).
 The design and implementation of FFTW3.
 https://doi.org/10.1109/JPROC.2004.840301

 M. Krack, M. Parrinello.
 Phys. Chem. Chem. Phys. 2, 2105-2112 (2000).
 All-electron ab-initio molecular dynamics.
 https://doi.org/10.1039/b001167n

 G. Lippert, J. Hutter, M. Parrinello.
 Theor. Chem. Acc. 103, 124-140 (1999).
 The Gaussian and augmented-plane-wave density functional method for ab initio 
 molecular dynamics simulations.
 https://doi.org/10.1007/s002140050523

 J. P. Perdew, K. Burke, M. Ernzerhof.
 Phys. Rev. Lett. 77, 3865-3868 (1996).
 Generalized gradient approximation made simple.
 https://doi.org/10.1103/PhysRevLett.77.3865


 -------------------------------------------------------------------------------
 -                                                                             -
 -                                T I M I N G                                  -
 -                                                                             -
 -------------------------------------------------------------------------------
 SUBROUTINE                       CALLS  ASD         SELF TIME        TOTAL TIME
                                MAXIMUM       AVERAGE  MAXIMUM  AVERAGE  MAXIMUM
 CP2K                                 1  1.0    0.023    0.030  306.316  306.316
 run_propagation_bse                  1  2.0    0.002    0.012  304.465  304.469
 qs_energies                          1  3.0    0.000    0.000  293.703  293.720
 scf_env_do_scf                       1  4.0    0.000    0.000  256.536  256.540
 scf_env_do_scf_inner_loop           78  5.0    0.002    0.005  256.536  256.540
 qs_ks_build_kohn_sham_matrix        79  8.0    0.013    0.013  205.004  205.006
 qs_ks_update_qs_env                 78  6.0    0.001    0.001  203.574  203.577
 rebuild_ks_matrix                   78  7.0    0.000    0.000  203.570  203.572
 fft_wrap_pw1pw2                   1650 11.0    0.036    0.041  133.677  139.169
 fft_wrap_pw1pw2_300               1176 12.1    5.767    6.054  129.805  135.117
 fft3d_ps                          1650 13.0   54.715   55.553  104.163  109.444
 qs_vxc_create                       79  9.0    0.001    0.001   84.651   84.651
 xc_vxc_pw_create                    78 10.0    1.204    1.280   84.650   84.650
 pw_poisson_solve                    79  9.0    1.832    1.903   65.598   65.652
 xc_pw_derive                       468 12.0    0.006    0.007   59.877   64.715
 xc_rho_set_and_dset_create          78 11.0    0.961    1.064   42.835   46.763
 xc_pw_divergence                    78 11.0    0.004    0.004   40.067   44.908
 ps_wavelet_solve                    79 10.0   32.338   33.304   36.818   36.883
 qs_energies_properties               1  4.0    0.000    0.000   36.326   36.343
 post_scf_bandstructure               1  5.0    0.000    0.000   36.326   36.343
 gw                                   1  6.0    0.000    0.000   36.284   36.286
 gw_calc_large_cell_Gamma             1  7.0    0.000    0.000   33.784   33.790
 qs_rho_update_rho_low               79  6.0    0.001    0.001   30.493   30.494
 calculate_rho_elec                  79  7.0    0.940    0.953   30.429   30.431
 mp_alltoall_z22v                  1650 15.0   23.185   29.452   23.185   29.452
 yz_to_x                            787 13.8    9.478    9.838   22.583   28.104
 x_to_yz                            863 14.1   16.763   17.230   26.843   27.300
 density_rs2pw                       79  8.0    0.005    0.005   24.478   24.775
 gspace_mixing                       77  6.0    0.916    0.929   22.063   22.063
 dbt_total                          816  8.9    0.005    0.005   20.799   20.800
 dbt_contract                       389  8.7    0.020    0.020   19.208   19.319
 get_Sigma_c                          1  8.0    0.001    0.002   18.419   18.420
 compute_3c_integrals               138  9.5    0.003    0.003   17.829   17.830
 dbt_tas_multiply                   734 11.1    0.002    0.002   17.082   17.194
 dbt_tas_total                      734 12.1    0.099    0.104   16.950   16.951
 sum_up_and_integrate                79  9.0    0.001    0.002   16.818   16.849
 build_3c_integrals                 142 10.5   13.231   15.563   14.596   16.596
 integrate_v_rspace                  79 10.0    0.002    0.003   16.425   16.480
 potential_pw2rs                     79 11.0    0.048    0.065   15.761   15.817
 xc_functional_eval                 390 11.4    0.001    0.002   11.003   14.706
 pbe_lda_eval                       390 12.4   11.002   14.705   11.002   14.705
 prepare_gapw_den                    79  9.0    0.001    0.002   13.450   13.572
 put_rho0_on_grid                    79 10.0    0.959    0.996   13.036   13.159
 broyden_mixing                      77  7.0   12.301   12.589   12.508   12.750
 get_mat_chi_Gamma_tau                1  8.0    0.001    0.002   12.045   12.053
 contract_to_Sigma                   51  9.0    0.001    0.001   11.077   11.077
 pw_scatter_p                       863 13.1    9.961   10.109    9.961   10.109
 get_sigma                           57  4.0    0.002    0.002   10.008   10.008
 update_effective_ham                18  3.0    0.001    0.001    9.572    9.576
 pw_gather_p                        787 12.8    8.804    9.300    8.804    9.300
 dbt_tas_dbm                        734 13.1    0.002    0.002    8.948    8.948
 transfer_pw2rs                     396 11.6    0.006    0.006    8.727    8.754
 dbm_multiply                       734 15.1    8.578    8.667    8.578    8.667
 hfx_ks_matrix                       79  9.0    0.003    0.003    8.331    8.387
 integrate_four_center               79 10.0    1.607    2.160    8.316    8.366
 mp_waitany                        9520 12.5    7.870    8.087    7.870    8.087
 pw_derive                          705 12.3    7.675    7.903    7.675    7.903
 mp_sync                           5149 11.8    5.389    7.854    5.389    7.854
 transfer_rs2pw                     396  9.4    0.006    0.007    7.461    7.665
 transfer_pw2rs_300                 159 12.0    2.552    2.630    6.842    6.894
 -------------------------------------------------------------------------------

 The number of warnings for this run is : 4
 
 -------------------------------------------------------------------------------
  **** **** ******  **  PROGRAM ENDED AT                 2024-12-02 15:59:01.705
 ***** ** ***  *** **   PROGRAM RAN ON                              i01r04c01s09
 **    ****   ******    PROGRAM RAN BY                                   di75qec
 ***** **    ** ** **   PROGRAM PROCESS ID                                  3304
  **** **  *******  **  PROGRAM STOPPED IN /hppfs/scratch/09/di75qec/Pyrimidine_
                                           scf.4142589
