 DBCSR| CPU Multiplication driver                                           XSMM (U)
 DBCSR| Multrec recursion limit                                              512 (U)
 DBCSR| Multiplication stack size                                           1000 (D)
 DBCSR| Maximum elements for images                                    UNLIMITED (U)
 DBCSR| Multiplicative factor virtual images                                   1 (U)
 DBCSR| Use multiplication densification                                       T (D)
 DBCSR| Multiplication size stacks                                             3 (U)
 DBCSR| Use memory pool for CPU allocation                                     F (U)
 DBCSR| Number of 3D layers                                               SINGLE (U)
 DBCSR| Use MPI memory allocation                                              F (U)
 DBCSR| Use RMA algorithm                                                      F (U)
 DBCSR| Use Communication thread                                               T (U)
 DBCSR| Communication thread load                                             79 (D)
 DBCSR| MPI: My process id                                                     0
 DBCSR| MPI: Number of processes                                              16
 DBCSR| OMP: Current number of threads                                         3
 DBCSR| OMP: Max number of threads                                             3
 DBCSR| Split modifier for TAS multiplication algorithm                  1.0E+00 (U)


  **** **** ******  **  PROGRAM STARTED AT               2025-02-10 18:17:00.352
 ***** ** ***  *** **   PROGRAM STARTED ON                          i04r04c04s02
 **    ****   ******    PROGRAM STARTED BY                               di75qec
 ***** **    ** ** **   PROGRAM PROCESS ID                               1170933
  **** **  *******  **  PROGRAM STARTED IN /hppfs/scratch/09/di75qec/Ethene_rtbs
                                           e_y_7.4280756

 CP2K| version string:                 CP2K version 2025.1 (Development Version)
 CP2K| source code revision number:                                  git:26096ef
 CP2K| cp2kflags: omp libint fftw3 libxc parallel scalapack xsmm max_contr=4    
 CP2K| is freely available from                            https://www.cp2k.org/
 CP2K| Program compiled at                       Mon 10 Feb 2025 05:11:29 PM CET
 CP2K| Program compiled on                                               login04
 CP2K| Program compiled for                                        Supermuc-foss
 CP2K| Data directory path               /dss/dsshome1/09/di75qec/CP2K-foss/data
 CP2K| Input file name                                                 rtbse.inp

 GLOBAL| Force Environment number                                              1
 GLOBAL| Basis set file name                                         aug-cc-pvdz
 GLOBAL| Potential file name                                      ALL_POTENTIALS
 GLOBAL| MM Potential file name                                     MM_POTENTIAL
 GLOBAL| Coordinate file name                                          coord.xyz
 GLOBAL| Method name                                                        CP2K
 GLOBAL| Project name                                                     Ethene
 GLOBAL| Run type                                                 RT_PROPAGATION
 GLOBAL| FFT library                                                       FFTW3
 GLOBAL| Diagonalization library                                       ScaLAPACK
 GLOBAL| DGEMM library                                                      BLAS
 GLOBAL| Orthonormality check for eigenvectors                          DISABLED
 GLOBAL| Matrix multiplication library                                 ScaLAPACK
 GLOBAL| All-to-all communication in single precision                          F
 GLOBAL| FFTs using library dependent lengths                                  F
 GLOBAL| Grid backend                                                       AUTO
 GLOBAL| Global print level                                               MEDIUM
 GLOBAL| MPI I/O enabled                                                       T
 GLOBAL| Total number of message passing processes                            16
 GLOBAL| Number of threads for this process                                    3
 GLOBAL| This output is from process                                           0
 GLOBAL| OpenMP stack size per thread (OMP_STACKSIZE)                    default
 GLOBAL| CPU model name             Intel(R) Xeon(R) Platinum 8174 CPU @ 3.10GHz
 GLOBAL| CPUID                                                              1003
 GLOBAL| Compiled for CPUID                                                    0

 *** HINT in environment.F:928 :: The compiler target flags (generic) used ***
 *** to build this binary cannot exploit all extensions of this CPU model  ***
 *** (x86_avx512). Consider compiler target flags as part of FCFLAGS and   ***
 *** CFLAGS (ARCH file).                                                   ***


 MEMORY| system memory details [Kb]
 MEMORY|                        rank 0           min           max       average
 MEMORY| MemTotal             98436736      98436736      98436736      98436736
 MEMORY| MemFree              84869816      84869800      84869816      84869801
 MEMORY| Buffers                     0             0             0             0
 MEMORY| Cached                2351464       2351464       2351464       2351464
 MEMORY| Slab                  1073952       1073952       1073968       1073967
 MEMORY| SReclaimable           247316        247316        247316        247316
 MEMORY| MemLikelyFree        87468596      87468580      87468596      87468581


 *** Fundamental physical constants (SI units) ***

 *** Literature: B. J. Mohr and B. N. Taylor,
 ***             CODATA recommended values of the fundamental physical
 ***             constants: 2006, Web Version 5.1
 ***             http://physics.nist.gov/constants

 Speed of light in vacuum [m/s]                             2.99792458000000E+08
 Magnetic constant or permeability of vacuum [N/A**2]       1.25663706143592E-06
 Electric constant or permittivity of vacuum [F/m]          8.85418781762039E-12
 Planck constant (h) [J*s]                                  6.62606896000000E-34
 Planck constant (h-bar) [J*s]                              1.05457162825177E-34
 Elementary charge [C]                                      1.60217648700000E-19
 Electron mass [kg]                                         9.10938215000000E-31
 Electron g factor [ ]                                     -2.00231930436220E+00
 Proton mass [kg]                                           1.67262163700000E-27
 Fine-structure constant                                    7.29735253760000E-03
 Rydberg constant [1/m]                                     1.09737315685270E+07
 Avogadro constant [1/mol]                                  6.02214179000000E+23
 Boltzmann constant [J/K]                                   1.38065040000000E-23
 Atomic mass unit [kg]                                      1.66053878200000E-27
 Bohr radius [m]                                            5.29177208590000E-11

 *** Conversion factors ***

 [u] -> [a.u.]                                              1.82288848426455E+03
 [Angstrom] -> [Bohr] = [a.u.]                              1.88972613288564E+00
 [a.u.] = [Bohr] -> [Angstrom]                              5.29177208590000E-01
 [a.u.] -> [s]                                              2.41888432650478E-17
 [a.u.] -> [fs]                                             2.41888432650478E-02
 [a.u.] -> [J]                                              4.35974393937059E-18
 [a.u.] -> [N]                                              8.23872205491840E-08
 [a.u.] -> [K]                                              3.15774647902944E+05
 [a.u.] -> [kJ/mol]                                         2.62549961709828E+03
 [a.u.] -> [kcal/mol]                                       6.27509468713739E+02
 [a.u.] -> [Pa]                                             2.94210107994716E+13
 [a.u.] -> [bar]                                            2.94210107994716E+08
 [a.u.] -> [atm]                                            2.90362800883016E+08
 [a.u.] -> [eV]                                             2.72113838565563E+01
 [a.u.] -> [Hz]                                             6.57968392072181E+15
 [a.u.] -> [1/cm] (wave numbers)                            2.19474631370540E+05
 [a.u./Bohr**2] -> [1/cm]                                   5.14048714338585E+03
 

 CELL_TOP| Volume [angstrom^3]:                                      8000.000000
 CELL_TOP| Vector a [angstrom    20.000     0.000     0.000   |a| =    20.000000
 CELL_TOP| Vector b [angstrom     0.000    20.000     0.000   |b| =    20.000000
 CELL_TOP| Vector c [angstrom     0.000     0.000    20.000   |c| =    20.000000
 CELL_TOP| Angle (b,c), alpha [degree]:                                90.000000
 CELL_TOP| Angle (a,c), beta  [degree]:                                90.000000
 CELL_TOP| Angle (a,b), gamma [degree]:                                90.000000
 CELL_TOP| Numerically orthorhombic:                                         YES
 CELL_TOP| Periodicity                                                      NONE

 GENERATE|  Preliminary Number of Bonds generated:                             0
 GENERATE|  Achieved consistency in connectivity generation.

 CELL| Volume [angstrom^3]:                                          8000.000000
 CELL| Vector a [angstrom]:      20.000     0.000     0.000   |a| =    20.000000
 CELL| Vector b [angstrom]:       0.000    20.000     0.000   |b| =    20.000000
 CELL| Vector c [angstrom]:       0.000     0.000    20.000   |c| =    20.000000
 CELL| Angle (b,c), alpha [degree]:                                    90.000000
 CELL| Angle (a,c), beta  [degree]:                                    90.000000
 CELL| Angle (a,b), gamma [degree]:                                    90.000000
 CELL| Numerically orthorhombic:                                             YES
 CELL| Periodicity                                                          NONE

 CELL_REF| Volume [angstrom^3]:                                      8000.000000
 CELL_REF| Vector a [angstrom    20.000     0.000     0.000   |a| =    20.000000
 CELL_REF| Vector b [angstrom     0.000    20.000     0.000   |b| =    20.000000
 CELL_REF| Vector c [angstrom     0.000     0.000    20.000   |c| =    20.000000
 CELL_REF| Angle (b,c), alpha [degree]:                                90.000000
 CELL_REF| Angle (a,c), beta  [degree]:                                90.000000
 CELL_REF| Angle (a,b), gamma [degree]:                                90.000000
 CELL_REF| Numerically orthorhombic:                                         YES
 CELL_REF| Periodicity                                                      NONE

 *******************************************************************************
 *******************************************************************************
 **                                                                           **
 **     #####                         ##              ##                      **
 **    ##   ##            ##          ##              ##                      **
 **   ##     ##                       ##            ######                    **
 **   ##     ##  ##   ##  ##   #####  ##  ##   ####   ##    #####    #####    **
 **   ##     ##  ##   ##  ##  ##      ## ##   ##      ##   ##   ##  ##   ##   **
 **   ##  ## ##  ##   ##  ##  ##      ####     ###    ##   ######   ######    **
 **    ##  ###   ##   ##  ##  ##      ## ##      ##   ##   ##       ##        **
 **     #######   #####   ##   #####  ##  ##  ####    ##    #####   ##        **
 **           ##                                                    ##        **
 **                                                                           **
 **                                                ... make the atoms dance   **
 **                                                                           **
 **            Copyright (C) by CP2K developers group (2000-2025)             **
 **                      J. Chem. Phys. 152, 194103 (2020)                    **
 **                                                                           **
 *******************************************************************************

 DFT| Spin restricted Kohn-Sham (RKS) calculation                            RKS
 DFT| Multiplicity                                                             1
 DFT| Number of spin states                                                    1
 DFT| Charge                                                                   0
 DFT| Self-interaction correction (SIC)                                       NO
 DFT| Cutoffs: density                                              1.000000E-10
 DFT|          gradient                                             1.000000E-10
 DFT|          tau                                                  1.000000E-10
 DFT|          cutoff_smoothing_range                               0.000000E+00
 DFT| XC density smoothing                                                  NONE
 DFT| XC derivatives                                                          PW

 FUNCTIONAL| PBE:
 FUNCTIONAL| J.P.Perdew, K.Burke, M.Ernzerhof, Phys. Rev. Letter, vol. 77, n 18,
 FUNCTIONAL|  pp. 3865-3868, (1996)sx=0.750sc=1.000{spin unpolarized}           


 QS| Method:                                                                GAPW
 QS| Density plane wave grid type                        NON-SPHERICAL FULLSPACE
 QS| Number of grid levels:                                                    4
 QS| Density cutoff [a.u.]:                                                300.0
 QS| Multi grid cutoff [a.u.]: 1) grid level                               300.0
 QS|                           2) grid level                               100.0
 QS|                           3) grid level                                33.3
 QS|                           4) grid level                                11.1
 QS| Grid level progression factor:                                          3.0
 QS| Relative density cutoff [a.u.]:                                        30.0
 QS| Interaction thresholds: eps_pgf_orb:                                1.0E-05
 QS|                         eps_filter_matrix:                          0.0E+00
 QS|                         eps_core_charge:                            1.0E-12
 QS|                         eps_rho_gspace:                             1.0E-10
 QS|                         eps_rho_rspace:                             1.0E-10
 QS|                         eps_gvg_rspace:                             1.0E-05
 QS|                         eps_ppl:                                    1.0E-02
 QS|                         eps_ppnl:                                   1.0E-07
 QS| GAPW|      One center basis from orbital basis primitives
 QS| GAPW|                   eps_fit:                                    1.0E-04
 QS| GAPW|                   eps_iso:                                    1.0E-12
 QS| GAPW|                   eps_svd:                                    1.0E-08
 QS| GAPW|                   eps_cpc:                                    1.0E-10
 QS| GAPW|   atom-r-grid: quadrature:                                     GC_LOG
 QS| GAPW|      atom-s-grid:  max l :                                          4
 QS| GAPW|      max_l_rho0 :                                                   2


 ATOMIC KIND INFORMATION

  1. Atomic kind: H                                     Number of atoms:       4

     Orbital Basis Set                                               aug-cc-pvdz

       Number of orbital shell sets:                                           4
       Number of orbital shells:                                               5
       Number of primitive Cartesian functions:                                7
       Number of Cartesian basis functions:                                    9
       Number of spherical basis functions:                                    9
       Norm type:                                                              2

       Normalised Cartesian orbitals:

                        Set   Shell   Orbital            Exponent    Coefficient

                          1       1    1s               13.010000       0.096107
                                                         1.962000       0.163020
                                                         0.444600       0.185545
                                                         0.122000       0.073744

                          1       2    2s               13.010000       0.000000
                                                         1.962000       0.000000
                                                         0.444600       0.000000
                                                         0.122000       0.147123

                          2       1    1s                0.029740       0.051041

                          3       1    1px               0.727000       0.956881
                          3       1    1py               0.727000       0.956881
                          3       1    1pz               0.727000       0.956881

                          4       1    1px               0.141000       0.123158
                          4       1    1py               0.141000       0.123158
                          4       1    1pz               0.141000       0.123158

     RI Auxiliary Basis Set                                    aug-cc-pvtz-rifit

       Number of orbital shell sets:                                          14
       Number of orbital shells:                                              14
       Number of primitive Cartesian functions:                               14
       Number of Cartesian basis functions:                                   55
       Number of spherical basis functions:                                   46
       Norm type:                                                              2

       Normalised Cartesian orbitals:

                        Set   Shell   Orbital            Exponent    Coefficient

                          1       1    1s                8.512828       3.551939

                          2       1    1s                1.873089       1.141114

                          3       1    1s                0.526184       0.440315

                          4       1    1s                0.289740       0.281460

                          5       1    1s                0.127194       0.151796

                          6       1    1px               2.372549       4.197195
                          6       1    1py               2.372549       4.197195
                          6       1    1pz               2.372549       4.197195

                          7       1    1px               1.180408       1.753802
                          7       1    1py               1.180408       1.753802
                          7       1    1pz               1.180408       1.753802

                          8       1    1px               0.603822       0.758711
                          8       1    1py               0.603822       0.758711
                          8       1    1pz               0.603822       0.758711

                          9       1    1px               0.235513       0.233861
                          9       1    1py               0.235513       0.233861
                          9       1    1pz               0.235513       0.233861

                         10       1    1dx2              1.809637       4.647235
                         10       1    1dxy              1.809637       8.049248
                         10       1    1dxz              1.809637       8.049248
                         10       1    1dy2              1.809637       4.647235
                         10       1    1dyz              1.809637       8.049248
                         10       1    1dz2              1.809637       4.647235

                         11       1    1dx2              1.143973       2.082748
                         11       1    1dxy              1.143973       3.607426
                         11       1    1dxz              1.143973       3.607426
                         11       1    1dy2              1.143973       2.082748
                         11       1    1dyz              1.143973       3.607426
                         11       1    1dz2              1.143973       2.082748

                         12       1    1dx2              0.436654       0.386056
                         12       1    1dxy              0.436654       0.668668
                         12       1    1dxz              0.436654       0.668668
                         12       1    1dy2              0.436654       0.386056
                         12       1    1dyz              0.436654       0.668668
                         12       1    1dz2              0.436654       0.386056

                         13       1    1fx3              1.806306       5.568458
                         13       1    1fx2y             1.806306      12.451451
                         13       1    1fx2z             1.806306      12.451451
                         13       1    1fxy2             1.806306      12.451451
                         13       1    1fxyz             1.806306      21.566546
                         13       1    1fxz2             1.806306      12.451451
                         13       1    1fy3              1.806306       5.568458
                         13       1    1fy2z             1.806306      12.451451
                         13       1    1fyz2             1.806306      12.451451
                         13       1    1fz3              1.806306       5.568458

                         14       1    1fx3              0.252978       0.066817
                         14       1    1fx2y             0.252978       0.149408
                         14       1    1fx2z             0.252978       0.149408
                         14       1    1fxy2             0.252978       0.149408
                         14       1    1fxyz             0.252978       0.258783
                         14       1    1fxz2             0.252978       0.149408
                         14       1    1fy3              0.252978       0.066817
                         14       1    1fy2z             0.252978       0.149408
                         14       1    1fyz2             0.252978       0.149408
                         14       1    1fz3              0.252978       0.066817

       Atomic covalent radius [Angstrom]:                                  0.320

       Atomic van der Waals radius [Angstrom]:                             1.090

     The atoms of this atomic kind are PAW atoms (GAPW):
       Hard Gaussian function radius:                                      1.200
       Rho0 radius:                                                        1.200
       Maximum GTO radius used for PAW projector construction:            24.566

     GAPW Soft Basis Set                                        aug-cc-pvdz_soft

       Number of orbital shell sets:                                           4
       Number of orbital shells:                                               5
       Number of primitive Cartesian functions:                                6
       Number of Cartesian basis functions:                                    9
       Number of spherical basis functions:                                    9
       Norm type:                                                              2

       Normalised Cartesian orbitals:

                        Set   Shell   Orbital            Exponent    Coefficient

                          1       1    1s                1.962000       0.163020
                                                         0.444600       0.185545
                                                         0.122000       0.073744

                          1       2    2s                1.962000       0.000000
                                                         0.444600       0.000000
                                                         0.122000       0.147123

                          2       1    1s                0.029740       0.051041

                          3       1    1px               0.727000       0.956881
                          3       1    1py               0.727000       0.956881
                          3       1    1pz               0.727000       0.956881

                          4       1    1px               0.141000       0.123158
                          4       1    1py               0.141000       0.123158
                          4       1    1pz               0.141000       0.123158

     AE Potential information for                                            ALL

       Description:                                       All-electron potential
                                          Krack, Parrinello, PCCP 2, 2105 (2000)

       Gaussian exponent of the core charge distribution:              12.500000
       Electronic configuration (s p d ...):                           1   0   0

  2. Atomic kind: C                                     Number of atoms:       2

     Orbital Basis Set                                               aug-cc-pvdz

       Number of orbital shell sets:                                           6
       Number of orbital shells:                                               9
       Number of primitive Cartesian functions:                               17
       Number of Cartesian basis functions:                                   25
       Number of spherical basis functions:                                   23
       Norm type:                                                              2

       Normalised Cartesian orbitals:

                        Set   Shell   Orbital            Exponent    Coefficient

                          1       1    1s             6665.000000       0.363803
                                                      1000.000000       0.675392
                                                       228.000000       1.132301
                                                        64.710000       1.654004
                                                        21.060000       1.924978
                                                         7.495000       1.448149
                                                         2.797000       0.439427
                                                         0.521500       0.006650
                                                         0.159600      -0.000574

                          1       2    2s             6665.000000      -0.076756
                                                      1000.000000      -0.146257
                                                       228.000000      -0.239407
                                                        64.710000      -0.379069
                                                        21.060000      -0.448104
                                                         7.495000      -0.484201
                                                         2.797000      -0.196168
                                                         0.521500       0.238162
                                                         0.159600       0.104468

                          1       3    3s             6665.000000       0.000000
                                                      1000.000000       0.000000
                                                       228.000000       0.000000
                                                        64.710000       0.000000
                                                        21.060000       0.000000
                                                         7.495000       0.000000
                                                         2.797000       0.000000
                                                         0.521500       0.000000
                                                         0.159600       0.179964

                          2       1    1s                0.046900       0.071827

                          3       1    1px               9.439000       0.898722
                                                         2.002000       0.711071
                                                         0.545600       0.339917
                                                         0.151700       0.063270
                          3       1    1py               9.439000       0.898722
                                                         2.002000       0.711071
                                                         0.545600       0.339917
                                                         0.151700       0.063270
                          3       1    1pz               9.439000       0.898722
                                                         2.002000       0.711071
                                                         0.545600       0.339917
                                                         0.151700       0.063270

                          3       2    2px               9.439000       0.000000
                                                         2.002000       0.000000
                                                         0.545600       0.000000
                                                         0.151700       0.134950
                          3       2    2py               9.439000       0.000000
                                                         2.002000       0.000000
                                                         0.545600       0.000000
                                                         0.151700       0.134950
                          3       2    2pz               9.439000       0.000000
                                                         2.002000       0.000000
                                                         0.545600       0.000000
                                                         0.151700       0.134950

                          4       1    1px               0.040410       0.025826
                          4       1    1py               0.040410       0.025826
                          4       1    1pz               0.040410       0.025826

                          5       1    1dx2              0.550000       0.578155
                          5       1    1dxy              0.550000       1.001394
                          5       1    1dxz              0.550000       1.001394
                          5       1    1dy2              0.550000       0.578155
                          5       1    1dyz              0.550000       1.001394
                          5       1    1dz2              0.550000       0.578155

                          6       1    1dx2              0.151000       0.060203
                          6       1    1dxy              0.151000       0.104275
                          6       1    1dxz              0.151000       0.104275
                          6       1    1dy2              0.151000       0.060203
                          6       1    1dyz              0.151000       0.104275
                          6       1    1dz2              0.151000       0.060203

     RI Auxiliary Basis Set                                    aug-cc-pvtz-rifit

       Number of orbital shell sets:                                          28
       Number of orbital shells:                                              28
       Number of primitive Cartesian functions:                               28
       Number of Cartesian basis functions:                                  136
       Number of spherical basis functions:                                  106
       Norm type:                                                              2

       Normalised Cartesian orbitals:

                        Set   Shell   Orbital            Exponent    Coefficient

                          1       1    1s              280.556612      48.856851

                          2       1    1s               60.230247      15.408880

                          3       1    1s               22.116651       7.268581

                          4       1    1s                6.862093       3.021708

                          5       1    1s                1.562255       0.995919

                          6       1    1s                0.912450       0.665376

                          7       1    1s                0.502749       0.425524

                          8       1    1s                0.215823       0.225675

                          9       1    1s                0.101536       0.128196

                         10       1    1px              24.231865      76.634379
                         10       1    1py              24.231865      76.634379
                         10       1    1pz              24.231865      76.634379

                         11       1    1px               6.476451      14.726905
                         11       1    1py               6.476451      14.726905
                         11       1    1pz               6.476451      14.726905

                         12       1    1px               2.129088       3.665914
                         12       1    1py               2.129088       3.665914
                         12       1    1pz               2.129088       3.665914

                         13       1    1px               1.037564       1.492652
                         13       1    1py               1.037564       1.492652
                         13       1    1pz               1.037564       1.492652

                         14       1    1px               0.549413       0.674238
                         14       1    1py               0.549413       0.674238
                         14       1    1pz               0.549413       0.674238

                         15       1    1px               0.281527       0.292307
                         15       1    1py               0.281527       0.292307
                         15       1    1pz               0.281527       0.292307

                         16       1    1px               0.115060       0.095520
                         16       1    1py               0.115060       0.095520
                         16       1    1pz               0.115060       0.095520

                         17       1    1dx2              9.718981      88.053322
                         17       1    1dxy              9.718981     152.512828
                         17       1    1dxz              9.718981     152.512828
                         17       1    1dy2              9.718981      88.053322
                         17       1    1dyz              9.718981     152.512828
                         17       1    1dz2              9.718981      88.053322

                         18       1    1dx2              3.035148      11.487463
                         18       1    1dxy              3.035148      19.896869
                         18       1    1dxz              3.035148      19.896869
                         18       1    1dy2              3.035148      11.487463
                         18       1    1dyz              3.035148      19.896869
                         18       1    1dz2              3.035148      11.487463

                         19       1    1dx2              1.467774       3.221535
                         19       1    1dxy              1.467774       5.579863
                         19       1    1dxz              1.467774       5.579863
                         19       1    1dy2              1.467774       3.221535
                         19       1    1dyz              1.467774       5.579863
                         19       1    1dz2              1.467774       3.221535

                         20       1    1dx2              0.573708       0.622471
                         20       1    1dxy              0.573708       1.078151
                         20       1    1dxz              0.573708       1.078151
                         20       1    1dy2              0.573708       0.622471
                         20       1    1dyz              0.573708       1.078151
                         20       1    1dz2              0.573708       0.622471

                         21       1    1dx2              0.290556       0.189261
                         21       1    1dxy              0.290556       0.327810
                         21       1    1dxz              0.290556       0.327810
                         21       1    1dy2              0.290556       0.189261
                         21       1    1dyz              0.290556       0.327810
                         21       1    1dz2              0.290556       0.189261

                         22       1    1dx2              0.148905       0.058749
                         22       1    1dxy              0.148905       0.101756
                         22       1    1dxz              0.148905       0.101756
                         22       1    1dy2              0.148905       0.058749
                         22       1    1dyz              0.148905       0.101756
                         22       1    1dz2              0.148905       0.058749

                         23       1    1fx3              2.275620       9.363300
                         23       1    1fx2y             2.275620      20.936975
                         23       1    1fx2z             2.275620      20.936975
                         23       1    1fxy2             2.275620      20.936975
                         23       1    1fxyz             2.275620      36.263904
                         23       1    1fxz2             2.275620      20.936975
                         23       1    1fy3              2.275620       9.363300
                         23       1    1fy2z             2.275620      20.936975
                         23       1    1fyz2             2.275620      20.936975
                         23       1    1fz3              2.275620       9.363300

                         24       1    1fx3              1.196890       2.205852
                         24       1    1fx2y             1.196890       4.932435
                         24       1    1fx2z             1.196890       4.932435
                         24       1    1fxy2             1.196890       4.932435
                         24       1    1fxyz             1.196890       8.543228
                         24       1    1fxz2             1.196890       4.932435
                         24       1    1fy3              1.196890       2.205852
                         24       1    1fy2z             1.196890       4.932435
                         24       1    1fyz2             1.196890       4.932435
                         24       1    1fz3              1.196890       2.205852

                         25       1    1fx3              0.541575       0.370413
                         25       1    1fx2y             0.541575       0.828268
                         25       1    1fx2z             0.541575       0.828268
                         25       1    1fxy2             0.541575       0.828268
                         25       1    1fxyz             0.541575       1.434603
                         25       1    1fxz2             0.541575       0.828268
                         25       1    1fy3              0.541575       0.370413
                         25       1    1fy2z             0.541575       0.828268
                         25       1    1fyz2             0.541575       0.828268
                         25       1    1fz3              0.541575       0.370413

                         26       1    1fx3              0.201793       0.040178
                         26       1    1fx2y             0.201793       0.089842
                         26       1    1fx2z             0.201793       0.089842
                         26       1    1fxy2             0.201793       0.089842
                         26       1    1fxyz             0.201793       0.155610
                         26       1    1fxz2             0.201793       0.089842
                         26       1    1fy3              0.201793       0.040178
                         26       1    1fy2z             0.201793       0.089842
                         26       1    1fyz2             0.201793       0.089842
                         26       1    1fz3              0.201793       0.040178

                         27       1    1gx4              1.216610       1.908103
                         27       1    1gx3y             1.216610       5.048367
                         27       1    1gx3z             1.216610       5.048367
                         27       1    1gx2y2            1.216610       6.517414
                         27       1    1gx2yz            1.216610      11.288491
                         27       1    1gx2z2            1.216610       6.517414
                         27       1    1gxy3             1.216610       5.048367
                         27       1    1gxy2z            1.216610      11.288491
                         27       1    1gxyz2            1.216610      11.288491
                         27       1    1gxz3             1.216610       5.048367
                         27       1    1gy4              1.216610       1.908103
                         27       1    1gy3z             1.216610       5.048367
                         27       1    1gy2z2            1.216610       6.517414
                         27       1    1gyz3             1.216610       5.048367
                         27       1    1gz4              1.216610       1.908103

                         28       1    1gx4              0.435998       0.113505
                         28       1    1gx3y             0.435998       0.300307
                         28       1    1gx3z             0.435998       0.300307
                         28       1    1gx2y2            0.435998       0.387695
                         28       1    1gx2yz            0.435998       0.671507
                         28       1    1gx2z2            0.435998       0.387695
                         28       1    1gxy3             0.435998       0.300307
                         28       1    1gxy2z            0.435998       0.671507
                         28       1    1gxyz2            0.435998       0.671507
                         28       1    1gxz3             0.435998       0.300307
                         28       1    1gy4              0.435998       0.113505
                         28       1    1gy3z             0.435998       0.300307
                         28       1    1gy2z2            0.435998       0.387695
                         28       1    1gyz3             0.435998       0.300307
                         28       1    1gz4              0.435998       0.113505

       Atomic covalent radius [Angstrom]:                                  0.770

       Atomic van der Waals radius [Angstrom]:                             1.700

     The atoms of this atomic kind are PAW atoms (GAPW):
       Hard Gaussian function radius:                                      1.512
       Rho0 radius:                                                        1.512
       Maximum GTO radius used for PAW projector construction:            24.566

     GAPW Soft Basis Set                                        aug-cc-pvdz_soft

       Number of orbital shell sets:                                           6
       Number of orbital shells:                                               9
       Number of primitive Cartesian functions:                               10
       Number of Cartesian basis functions:                                   25
       Number of spherical basis functions:                                   23
       Norm type:                                                              2

       Normalised Cartesian orbitals:

                        Set   Shell   Orbital            Exponent    Coefficient

                          1       1    1s                2.797000       0.439427
                                                         0.521500       0.006650
                                                         0.159600      -0.000574

                          1       2    2s                2.797000      -0.196168
                                                         0.521500       0.238162
                                                         0.159600       0.104468

                          1       3    3s                2.797000       0.000000
                                                         0.521500       0.000000
                                                         0.159600       0.179964

                          2       1    1s                0.046900       0.071827

                          3       1    1px               2.002000       0.711071
                                                         0.545600       0.339917
                                                         0.151700       0.063270
                          3       1    1py               2.002000       0.711071
                                                         0.545600       0.339917
                                                         0.151700       0.063270
                          3       1    1pz               2.002000       0.711071
                                                         0.545600       0.339917
                                                         0.151700       0.063270

                          3       2    2px               2.002000       0.000000
                                                         0.545600       0.000000
                                                         0.151700       0.134950
                          3       2    2py               2.002000       0.000000
                                                         0.545600       0.000000
                                                         0.151700       0.134950
                          3       2    2pz               2.002000       0.000000
                                                         0.545600       0.000000
                                                         0.151700       0.134950

                          4       1    1px               0.040410       0.025826
                          4       1    1py               0.040410       0.025826
                          4       1    1pz               0.040410       0.025826

                          5       1    1dx2              0.550000       0.578155
                          5       1    1dxy              0.550000       1.001394
                          5       1    1dxz              0.550000       1.001394
                          5       1    1dy2              0.550000       0.578155
                          5       1    1dyz              0.550000       1.001394
                          5       1    1dz2              0.550000       0.578155

                          6       1    1dx2              0.151000       0.060203
                          6       1    1dxy              0.151000       0.104275
                          6       1    1dxz              0.151000       0.104275
                          6       1    1dy2              0.151000       0.060203
                          6       1    1dyz              0.151000       0.104275
                          6       1    1dz2              0.151000       0.060203

     AE Potential information for                                            ALL

       Description:                                       All-electron potential
                                          Krack, Parrinello, PCCP 2, 2105 (2000)

       Gaussian exponent of the core charge distribution:               4.109048
       Electronic configuration (s p d ...):                           4   2   0


 MOLECULE KIND INFORMATION


 All atoms are their own molecule, skipping detailed information


 TOTAL NUMBERS AND MAXIMUM NUMBERS

  Total number of            - Atomic kinds:                                   2
                             - Atoms:                                          6
                             - Shell sets:                                    28
                             - Shells:                                        38
                             - Primitive Cartesian functions:                 62
                             - Cartesian basis functions:                     86
                             - Spherical basis functions:                     82

  Maximum angular momentum of the orbital basis functions:                     2


 MODULE QUICKSTEP: ATOMIC COORDINATES IN ANGSTROM

   Atom Kind Element         X             Y             Z       Z(eff)     Mass
      1    1 H     1     10.000000     10.923274     11.238289   1.0000   1.0079
      2    1 H     1     10.000000      9.076726     11.238289   1.0000   1.0079
      3    1 H     1     10.000000     10.923274      8.761711   1.0000   1.0079
      4    1 H     1     10.000000      9.076726      8.761711   1.0000   1.0079
      5    2 C     6     10.000000     10.000000     10.668188   6.0000  12.0107
      6    2 C     6     10.000000     10.000000      9.331812   6.0000  12.0107



 SCF PARAMETERS         Density guess:                                   RESTART
                        --------------------------------------------------------
                        max_scf:                                             200
                        max_scf_history:                                       0
                        max_diis:                                              4
                        --------------------------------------------------------
                        eps_scf:                                        1.00E-09
                        eps_scf_history:                                0.00E+00
                        eps_diis:                                       1.00E-01
                        eps_eigval:                                     1.00E-05
                        --------------------------------------------------------
                        level_shift [a.u.]:                             0.000000
                        added MOs                                        74    0
                        --------------------------------------------------------
                        Mixing method:                            BROYDEN_MIXING
                                                charge density mixing in g-space
                        --------------------------------------------------------
                        No outer SCF

 PW_GRID| Information for grid number                                          1
 PW_GRID| Grid distributed over                                    16 processors
 PW_GRID| Real space group dimensions                                    16    1
 PW_GRID| the grid is blocked:                                                NO
 PW_GRID| Cutoff [a.u.]                                                    300.0
 PW_GRID| spherical cutoff:                                                   NO
 PW_GRID|   Bounds   1           -150     149                Points:         300
 PW_GRID|   Bounds   2           -150     149                Points:         300
 PW_GRID|   Bounds   3           -150     149                Points:         300
 PW_GRID| Volume element (a.u.^3)  0.2000E-02     Volume (a.u.^3)     53986.6767
 PW_GRID| Grid span                                                    FULLSPACE
 PW_GRID|   Distribution                         Average         Max         Min
 PW_GRID|   G-Vectors                          1687500.0     1687500     1687500
 PW_GRID|   G-Rays                                5625.0        5625        5625
 PW_GRID|   Real Space Points                  1687500.0     1710000     1620000

 PW_GRID| Information for grid number                                          2
 PW_GRID| Number of the reference grid                                         1
 PW_GRID| Grid distributed over                                    16 processors
 PW_GRID| Real space group dimensions                                    16    1
 PW_GRID| the grid is blocked:                                                NO
 PW_GRID| Cutoff [a.u.]                                                    100.0
 PW_GRID| spherical cutoff:                                                   NO
 PW_GRID|   Bounds   1            -90      89                Points:         180
 PW_GRID|   Bounds   2            -90      89                Points:         180
 PW_GRID|   Bounds   3            -90      89                Points:         180
 PW_GRID| Volume element (a.u.^3)  0.9257E-02     Volume (a.u.^3)     53986.6767
 PW_GRID| Grid span                                                    FULLSPACE
 PW_GRID|   Distribution                         Average         Max         Min
 PW_GRID|   G-Vectors                           364500.0      364680      364320
 PW_GRID|   G-Rays                                2025.0        2026        2024
 PW_GRID|   Real Space Points                   364500.0      388800      356400

 PW_GRID| Information for grid number                                          3
 PW_GRID| Number of the reference grid                                         1
 PW_GRID| Grid distributed over                                    16 processors
 PW_GRID| Real space group dimensions                                    16    1
 PW_GRID| the grid is blocked:                                                NO
 PW_GRID| Cutoff [a.u.]                                                     33.3
 PW_GRID| spherical cutoff:                                                   NO
 PW_GRID|   Bounds   1            -50      49                Points:         100
 PW_GRID|   Bounds   2            -50      49                Points:         100
 PW_GRID|   Bounds   3            -50      49                Points:         100
 PW_GRID| Volume element (a.u.^3)  0.5399E-01     Volume (a.u.^3)     53986.6767
 PW_GRID| Grid span                                                    FULLSPACE
 PW_GRID|   Distribution                         Average         Max         Min
 PW_GRID|   G-Vectors                            62500.0       62600       62400
 PW_GRID|   G-Rays                                 625.0         626         624
 PW_GRID|   Real Space Points                    62500.0       70000       60000

 PW_GRID| Information for grid number                                          4
 PW_GRID| Number of the reference grid                                         1
 PW_GRID| Grid distributed over                                    16 processors
 PW_GRID| Real space group dimensions                                    16    1
 PW_GRID| the grid is blocked:                                                NO
 PW_GRID| Cutoff [a.u.]                                                     11.1
 PW_GRID| spherical cutoff:                                                   NO
 PW_GRID|   Bounds   1            -30      29                Points:          60
 PW_GRID|   Bounds   2            -30      29                Points:          60
 PW_GRID|   Bounds   3            -30      29                Points:          60
 PW_GRID| Volume element (a.u.^3)  0.2499         Volume (a.u.^3)     53986.6767
 PW_GRID| Grid span                                                    FULLSPACE
 PW_GRID|   Distribution                         Average         Max         Min
 PW_GRID|   G-Vectors                            13500.0       13560       13440
 PW_GRID|   G-Rays                                 225.0         226         224
 PW_GRID|   Real Space Points                    13500.0       14400       10800

 POISSON| Solver                                                         WAVELET
 POISSON| Wavelet| Scaling function                                           40
 POISSON| Periodicity                                                       NONE

 RS_GRID| Information for grid number                                          1
 RS_GRID|   Bounds   1           -150     149                Points:         300
 RS_GRID|   Bounds   2           -150     149                Points:         300
 RS_GRID|   Bounds   3           -150     149                Points:         300
 RS_GRID| Real space distribution over                                  4 groups
 RS_GRID| Real space distribution along direction                              2
 RS_GRID| Border size                                                         24
 RS_GRID| Real space distribution over                                  4 groups
 RS_GRID| Real space distribution along direction                              3
 RS_GRID| Border size                                                         24
 RS_GRID|   Distribution                         Average         Max         Min
 RS_GRID|   Planes                                 123.0         123         123
 RS_GRID|   Distribution                         Average         Max         Min
 RS_GRID|   Planes                                 123.0         123         123

 RS_GRID| Information for grid number                                          2
 RS_GRID|   Bounds   1            -90      89                Points:         180
 RS_GRID|   Bounds   2            -90      89                Points:         180
 RS_GRID|   Bounds   3            -90      89                Points:         180
 RS_GRID| Real space distribution over                                  4 groups
 RS_GRID| Real space distribution along direction                              2
 RS_GRID| Border size                                                         25
 RS_GRID| Real space distribution over                                  4 groups
 RS_GRID| Real space distribution along direction                              3
 RS_GRID| Border size                                                         25
 RS_GRID|   Distribution                         Average         Max         Min
 RS_GRID|   Planes                                  95.0          95          95
 RS_GRID|   Distribution                         Average         Max         Min
 RS_GRID|   Planes                                  95.0          95          95

 RS_GRID| Information for grid number                                          3
 RS_GRID|   Bounds   1            -50      49                Points:         100
 RS_GRID|   Bounds   2            -50      49                Points:         100
 RS_GRID|   Bounds   3            -50      49                Points:         100
 RS_GRID| Real space fully replicated
 RS_GRID| Group size                                                           1

 RS_GRID| Information for grid number                                          4
 RS_GRID|   Bounds   1            -30      29                Points:          60
 RS_GRID|   Bounds   2            -30      29                Points:          60
 RS_GRID|   Bounds   3            -30      29                Points:          60
 RS_GRID| Real space fully replicated
 RS_GRID| Group size                                                           1

  HFX_INFO| Replica ID:                                                        1
  HFX_INFO| FRACTION:                                               0.2500000000
  HFX_INFO| Interaction Potential:                                       COULOMB
  HFX_INFO| EPS_SCHWARZ:                                                 1.0E-10
  HFX_INFO| EPS_SCHWARZ_FORCES                                           1.0E-08
  HFX_INFO| EPS_STORAGE_SCALING:                                         1.0E+00
  HFX_INFO| NBINS:                                                            64
  HFX_INFO| BLOCK_SIZE:                                                        1
  HFX_INFO| Number of periodic shells considered:                           NONE
  HFX_INFO| Number of periodic cells considered:                            NONE


 Number of electrons:                                                         16
 Number of occupied orbitals:                                                  8
 Number of molecular orbitals:                                                82

 Number of orbital functions:                                                 82
 Number of independent orbital functions:                                     82

 Extrapolation method: initial_guess


 SCF WAVEFUNCTION OPTIMIZATION

  Step     Update method      Time    Convergence         Total energy    Change
  ------------------------------------------------------------------------------

  HFX_MEM_INFO| Est. max. program size before HFX [MiB]:                    1231
  HFX_MEM_INFO| Number of cart. primitive ERI's calculated:             38197542
  HFX_MEM_INFO| Number of sph. ERI's calculated:                         8837367
  HFX_MEM_INFO| Number of sph. ERI's stored in-core:                     8837367
  HFX_MEM_INFO| Number of sph. ERI's stored on disk:                           0
  HFX_MEM_INFO| Number of sph. ERI's calculated on the fly:                    0
  HFX_MEM_INFO| Total memory consumption ERI's RAM [MiB]:                     24
  HFX_MEM_INFO| Whereof max-vals [MiB]:                                        1
  HFX_MEM_INFO| Total compression factor ERI's RAM:                         2.83
  HFX_MEM_INFO| Total memory consumption ERI's disk [MiB]:                     0
  HFX_MEM_INFO| Total compression factor ERI's disk:                        0.00
  HFX_MEM_INFO| Size of density/Fock matrix [MiB]:                             0
  HFX_MEM_INFO| Size of buffers [MiB]:                                         0
  HFX_MEM_INFO| Est. max. program size after HFX  [MiB]:                    1590

     1 NoMix/Diag. 0.40E+00    4.6     7.9134E-10       -78.4905842457 -7.85E+01

  *** SCF run converged in     1 steps ***


  Electronic density on regular grids:        -12.2459731229        3.7540268771
  Core density on regular grids:               16.0000000000       -0.0000000000
  Hard and soft densities (Lebedev):          -86.8588427708      -83.1048157695
  Total Rho_soft + Rho1_hard - Rho1_soft      -16.0000001242
  Total charge density (r-space):              -0.0000001242
  Total Rho_soft + Rho0_soft (g-space):        -0.0000001477

  Overlap energy of the core charge distribution:               0.00000835830349
  Self energy of the core charge distribution:                -63.86738907357999
  Core Hamiltonian energy:                                    -12.75022328876565
  Hartree energy:                                              26.05484888330083
  Exchange-correlation energy:                                 -3.88035624984854
  Hartree-Fock Exchange energy:                                -2.93159542180771

  GAPW| Exc from hard and soft atomic rho1:                    -5.36975429429789
  GAPW| local Eh = 1 center integrals:                        -15.74612315904497

  Total energy:                                               -78.49058424574045

 !-----------------------------------------------------------------------------!
                     Mulliken Population Analysis

 #  Atom  Element  Kind  Atomic population                           Net charge
       1     H        1          1.342477                             -0.342477
       2     H        1          1.342477                             -0.342477
       3     H        1          1.342477                             -0.342477
       4     H        1          1.342477                             -0.342477
       5     C        2          5.315047                              0.684953
       6     C        2          5.315047                              0.684953
 # Total charge                             16.000000                 -0.000000

 !-----------------------------------------------------------------------------!

 !-----------------------------------------------------------------------------!
                           Hirshfeld Charges

  #Atom  Element  Kind  Ref Charge     Population                    Net charge
      1       H      1       1.000          0.507                         0.493
      2       H      1       1.000          0.507                         0.493
      3       H      1       1.000          0.507                         0.493
      4       H      1       1.000          0.507                         0.493
      5       C      2       6.000          6.973                        -0.973
      6       C      2       6.000          6.973                        -0.973

  Total Charge                                                            0.024
 !-----------------------------------------------------------------------------!

 MOMENTS
  The electric/magnetic moments are written to file:
  Ethene-MOMENTS-moments-1.dat

  
 -------------------------------------------------------------------------------
 -                                                                             -
 -                          BANDSTRUCTURE CALCULATION                          -
 -                                                                             -
 -------------------------------------------------------------------------------
  
 Number of occupied molecular orbitals (MOs) = Number of occupied bands        8
 Number of unoccupied (= virtual) MOs = Number of unoccupied bands            74
 Number of Gaussian basis functions for MOs                                   82
 K-point mesh for the density of states (DOS) and the self-energy      1   1   1
  
 -------------------------------------------------------------------------------
 -                                                                             -
 -                              GW CALCULATION                                 -
 -                                                                             -
 -------------------------------------------------------------------------------
  
 Input: Number of time/freq. points                                           30
 Input: Filter threshold for sparse tensor operations                    1.0E-08
 Apply Hedin shift                                                             F
  
 Number of auxiliary Gaussian basis functions for , , W                    396
 Cutoff radius for the truncated Coulomb operator in ^x:               2645.9 
 Cutoff radius for the truncated Coulomb operator in RI metric:            3.0 
 Regularization parameter of RI                                          0.0E+00
 Lattice sum size for V(k):                                                    3
  
 K-point mesh 1 for , , W                                            1   1   1
 K-point mesh 2 for , , W (for k-point extrapolation of W)           1   1   1
 Approximate the k-point extrapolation                                         F
 Group size for tensor operations                                             16
 
 Computed 3-center integrals (|P), execution time                        0.5 s
 Percentage of non-zero (|P)                                         100.000 %
 Max. distance between , in non-zero (|P)                              3.1 A
 Required memory if storing all 3-center integrals (|P)                   0 GB
 
 Number of i and j atoms in M_P(), N_Q():                               25
 Number of inner loop atoms for  in M_P = sum_ (|P) G_                 6
 
 SCF direct band gap (eV)                                                   7.77
 Max. SCF eigval diff. (eV)                                               364.38
 E-Range for minimax grid                                                  46.88
 Number of Pad parameters for analytic continuation:                         16
 
 
 Read W^MIC(i) from file for time point      1 / 30,    Execution time    0.0 s
 Read W^MIC(i) from file for time point      2 / 30,    Execution time    0.0 s
 Read W^MIC(i) from file for time point      3 / 30,    Execution time    0.0 s
 Read W^MIC(i) from file for time point      4 / 30,    Execution time    0.0 s
 Read W^MIC(i) from file for time point      5 / 30,    Execution time    0.0 s
 Read W^MIC(i) from file for time point      6 / 30,    Execution time    0.0 s
 Read W^MIC(i) from file for time point      7 / 30,    Execution time    0.0 s
 Read W^MIC(i) from file for time point      8 / 30,    Execution time    0.0 s
 Read W^MIC(i) from file for time point      9 / 30,    Execution time    0.0 s
 Read W^MIC(i) from file for time point     10 / 30,    Execution time    0.0 s
 Read W^MIC(i) from file for time point     11 / 30,    Execution time    0.0 s
 Read W^MIC(i) from file for time point     12 / 30,    Execution time    0.0 s
 Read W^MIC(i) from file for time point     13 / 30,    Execution time    0.0 s
 Read W^MIC(i) from file for time point     14 / 30,    Execution time    0.0 s
 Read W^MIC(i) from file for time point     15 / 30,    Execution time    0.0 s
 Read W^MIC(i) from file for time point     16 / 30,    Execution time    0.0 s
 Read W^MIC(i) from file for time point     17 / 30,    Execution time    0.0 s
 Read W^MIC(i) from file for time point     18 / 30,    Execution time    0.0 s
 Read W^MIC(i) from file for time point     19 / 30,    Execution time    0.0 s
 Read W^MIC(i) from file for time point     20 / 30,    Execution time    0.0 s
 Read W^MIC(i) from file for time point     21 / 30,    Execution time    0.0 s
 Read W^MIC(i) from file for time point     22 / 30,    Execution time    0.0 s
 Read W^MIC(i) from file for time point     23 / 30,    Execution time    0.0 s
 Read W^MIC(i) from file for time point     24 / 30,    Execution time    0.0 s
 Read W^MIC(i) from file for time point     25 / 30,    Execution time    0.0 s
 Read W^MIC(i) from file for time point     26 / 30,    Execution time    0.0 s
 Read W^MIC(i) from file for time point     27 / 30,    Execution time    0.0 s
 Read W^MIC(i) from file for time point     28 / 30,    Execution time    0.0 s
 Read W^MIC(i) from file for time point     29 / 30,    Execution time    0.0 s
 Read W^MIC(i) from file for time point     30 / 30,    Execution time    0.0 s
 
 Read W^MIC(f=0) from file for freq. point    1 /  1,    Execution time    0.0 s
 Read ^c(i,k=0) from file for time point    1 / 30,    Execution time    0.0 s
 Read ^c(i,k=0) from file for time point    2 / 30,    Execution time    0.0 s
 Read ^c(i,k=0) from file for time point    3 / 30,    Execution time    0.0 s
 Read ^c(i,k=0) from file for time point    4 / 30,    Execution time    0.0 s
 Read ^c(i,k=0) from file for time point    5 / 30,    Execution time    0.0 s
 Read ^c(i,k=0) from file for time point    6 / 30,    Execution time    0.0 s
 Read ^c(i,k=0) from file for time point    7 / 30,    Execution time    0.0 s
 Read ^c(i,k=0) from file for time point    8 / 30,    Execution time    0.0 s
 Read ^c(i,k=0) from file for time point    9 / 30,    Execution time    0.0 s
 Read ^c(i,k=0) from file for time point   10 / 30,    Execution time    0.0 s
 Read ^c(i,k=0) from file for time point   11 / 30,    Execution time    0.0 s
 Read ^c(i,k=0) from file for time point   12 / 30,    Execution time    0.0 s
 Read ^c(i,k=0) from file for time point   13 / 30,    Execution time    0.0 s
 Read ^c(i,k=0) from file for time point   14 / 30,    Execution time    0.0 s
 Read ^c(i,k=0) from file for time point   15 / 30,    Execution time    0.0 s
 Read ^c(i,k=0) from file for time point   16 / 30,    Execution time    0.0 s
 Read ^c(i,k=0) from file for time point   17 / 30,    Execution time    0.0 s
 Read ^c(i,k=0) from file for time point   18 / 30,    Execution time    0.0 s
 Read ^c(i,k=0) from file for time point   19 / 30,    Execution time    0.0 s
 Read ^c(i,k=0) from file for time point   20 / 30,    Execution time    0.0 s
 Read ^c(i,k=0) from file for time point   21 / 30,    Execution time    0.0 s
 Read ^c(i,k=0) from file for time point   22 / 30,    Execution time    0.0 s
 Read ^c(i,k=0) from file for time point   23 / 30,    Execution time    0.0 s
 Read ^c(i,k=0) from file for time point   24 / 30,    Execution time    0.0 s
 Read ^c(i,k=0) from file for time point   25 / 30,    Execution time    0.0 s
 Read ^c(i,k=0) from file for time point   26 / 30,    Execution time    0.0 s
 Read ^c(i,k=0) from file for time point   27 / 30,    Execution time    0.0 s
 Read ^c(i,k=0) from file for time point   28 / 30,    Execution time    0.0 s
 Read ^c(i,k=0) from file for time point   29 / 30,    Execution time    0.0 s
 Read ^c(i,k=0) from file for time point   30 / 30,    Execution time    0.0 s
 
 Sparsity of ^c(i,k=0): Percentage of skipped atom pairs:                0.0 %
 Retaining nl_3c for RTBSE

 
 SCF valence band maximum (eV):                                           -7.847
 SCF conduction band minimum (eV):                                        -0.074
 SCF indirect band gap (eV):                                               7.773
 SCF direct band gap (eV):                                                 7.773
 
 G0W0 valence band maximum (eV):                                         -10.015
 G0W0 conduction band minimum (eV):                                        1.047
 G0W0 indirect band gap (eV):                                             11.062
 G0W0 direct band gap (eV):                                               11.062
 
 Hartree-Fock with SCF orbitals valence band maximum (eV):                -9.996
 Hartree-Fock with SCF orbitals conduction band minimum (eV)               1.382
 Hartree-Fock with SCF orbitals indirect band gap (eV):                   11.378
 Hartree-Fock with SCF orbitals direct band gap (eV):                     11.378

 ENERGY| Total FORCE_EVAL ( QS ) energy [hartree]            -78.490584245740450
 RTBSE| Approximate size of the 3c integrals                       0.20E+002 MiB
 
 /-----------------------------------------------------------------------------\
 |                                                                             |
 |                    Real Time Bethe-Salpeter Propagation                     |
 |                                                                             |
 \-----------------------------------------------------------------------------/
 
 Exponential method                                                          BCH
 Reference Hamiltonian                                                      G0W0
 Apply delta pulse                                                             T


 *** WARNING in emd/rt_bse_io.F:482 :: Restart required but no info file ***
 *** found - starting from sim_step given in input                       ***


 *** WARNING in emd/rt_bse_io.F:508 :: Restart without some restart ***
 *** matrices - starting from SCF density.                          ***


 *** WARNING in emd/rt_bse_io.F:561 :: Restart without previous moments - ***
 *** unknown moments trace set to zero.                                   ***

 RTBSE| Applying delta pulse
 RTBSE| Delta pulse elements (a.u.) :   -0.0000E+000  -0.1000E-003  -0.0000E+000
 RTBSE| Metric difference after delta kick                       0.73778469E-004
 RTBSE| Simulation step         Convergence     Electron number  ETRS Iterations
 RTBSE|               0     0.27370365E-008     0.16000000E+002                2
 RTBSE| Simulation step         Convergence     Electron number  ETRS Iterations
 RTBSE|               1     0.26295869E-008     0.16000000E+002                2
 RTBSE| Simulation step         Convergence     Electron number  ETRS Iterations
 RTBSE|               2     0.29347987E-008     0.16000000E+002                2
 RTBSE| Simulation step         Convergence     Electron number  ETRS Iterations
 RTBSE|               3     0.31578633E-008     0.16000000E+002                2
 RTBSE| Simulation step         Convergence     Electron number  ETRS Iterations
 RTBSE|               4     0.34113351E-008     0.16000000E+002                2
 RTBSE| Simulation step         Convergence     Electron number  ETRS Iterations
 RTBSE|               5     0.34401051E-008     0.16000000E+002                2
 RTBSE| Simulation step         Convergence     Electron number  ETRS Iterations
 RTBSE|               6     0.32971372E-008     0.16000000E+002                2
 RTBSE| Simulation step         Convergence     Electron number  ETRS Iterations
 RTBSE|               7     0.31419537E-008     0.16000000E+002                2
 RTBSE| Simulation step         Convergence     Electron number  ETRS Iterations
 RTBSE|               8     0.30635165E-008     0.16000000E+002                2
 RTBSE| Simulation step         Convergence     Electron number  ETRS Iterations
 RTBSE|               9     0.31791535E-008     0.16000000E+002                2
 RTBSE| Simulation step         Convergence     Electron number  ETRS Iterations
 RTBSE|              10     0.30891177E-008     0.16000000E+002                2
 RTBSE| Simulation step         Convergence     Electron number  ETRS Iterations
 RTBSE|              11     0.28930009E-008     0.16000000E+002                2
 RTBSE| Simulation step         Convergence     Electron number  ETRS Iterations
 RTBSE|              12     0.26631633E-008     0.16000000E+002                2
 RTBSE| Simulation step         Convergence     Electron number  ETRS Iterations
 RTBSE|              13     0.25298448E-008     0.16000000E+002                2
 RTBSE| Simulation step         Convergence     Electron number  ETRS Iterations
 RTBSE|              14     0.23574846E-008     0.16000000E+002                2
 RTBSE| Simulation step         Convergence     Electron number  ETRS Iterations
 RTBSE|              15     0.25503684E-008     0.16000000E+002                2
 RTBSE| Simulation step         Convergence     Electron number  ETRS Iterations
 RTBSE|              16     0.27318430E-008     0.16000000E+002                2
 RTBSE| Simulation step         Convergence     Electron number  ETRS Iterations
 RTBSE|              17     0.27920513E-008     0.16000000E+002                2
 RTBSE| Simulation step         Convergence     Electron number  ETRS Iterations
 RTBSE|              18     0.27499171E-008     0.16000000E+002                2
 RTBSE| Simulation step         Convergence     Electron number  ETRS Iterations
 RTBSE|              19     0.26556021E-008     0.16000000E+002                2
 RTBSE| Simulation step         Convergence     Electron number  ETRS Iterations
 RTBSE|              20     0.27340073E-008     0.16000000E+002                2
 RTBSE| Simulation step         Convergence     Electron number  ETRS Iterations
 RTBSE|              21     0.26718881E-008     0.16000000E+002                2
 RTBSE| Simulation step         Convergence     Electron number  ETRS Iterations
 RTBSE|              22     0.27133774E-008     0.16000000E+002                2
 RTBSE| Simulation step         Convergence     Electron number  ETRS Iterations
 RTBSE|              23     0.25854305E-008     0.16000000E+002                2
 RTBSE| Simulation step         Convergence     Electron number  ETRS Iterations
 RTBSE|              24     0.24699681E-008     0.16000000E+002                2
 RTBSE| Simulation step         Convergence     Electron number  ETRS Iterations
 RTBSE|              25     0.22743830E-008     0.16000000E+002                2
[...]
 RTBSE|           20000     0.13385619E-008     0.16000000E+002                2

 -------------------------------------------------------------------------------
 -                                                                             -
 -                                DBCSR STATISTICS                             -
 -                                                                             -
 -------------------------------------------------------------------------------
 COUNTER                                    TOTAL       BLAS       SMM       ACC
 flops     9 x     9 x    18                58320       0.0%    100.0%      0.0%     
 flops     9 x    23 x    18                59616       0.0%    100.0%      0.0%     
 flops    23 x     9 x    18                59616       0.0%    100.0%      0.0%     
 flops     9 x    32 x     9                82944       0.0%    100.0%      0.0%     
 flops    23 x    32 x     9               105984       0.0%    100.0%      0.0%     
 flops     9 x    32 x    23               105984       0.0%    100.0%      0.0%     
 flops    23 x    23 x    18               114264       0.0%    100.0%      0.0%     
 flops    23 x    32 x    23               135424       0.0%    100.0%      0.0%     
 flops     9 x     9 x    32               207360       0.0%    100.0%      0.0%     
 flops     9 x    23 x    32               211968       0.0%    100.0%      0.0%     
 flops    23 x     9 x    32               211968       0.0%    100.0%      0.0%     
 flops    23 x    23 x    32               406272       0.0%    100.0%      0.0%     
 flops    46 x   108 x    92              7312896       0.0%    100.0%      0.0%     
 flops   106 x   108 x    92              8425728       0.0%    100.0%      0.0%     
 flops    46 x   108 x   106              8425728       0.0%    100.0%      0.0%     
 flops   106 x   108 x   106              9707904       0.0%    100.0%      0.0%     
 flops    46 x    96 x    92             19501056       0.0%    100.0%      0.0%     
 flops    46 x    96 x   106             22468608       0.0%    100.0%      0.0%     
 flops   106 x    96 x    92             22468608       0.0%    100.0%      0.0%     
 flops   106 x    96 x   106             25887744       0.0%    100.0%      0.0%     
 flops inhomo. stacks                           0       0.0%      0.0%      0.0%
 flops total                       125.957992E+06       0.0%    100.0%      0.0%
 flops max/rank                      9.361032E+06       0.0%    100.0%      0.0%
 matmuls inhomo. stacks                         0       0.0%      0.0%      0.0%
 matmuls total                                258       0.0%    100.0%      0.0%
 number of processed stacks                   228       0.0%    100.0%      0.0%
 average stack size                                     0.0       1.1       0.0
 marketing flops                   124.521024E+06
 -------------------------------------------------------------------------------
 # multiplications                              4
 max memory usage/rank               1.704792E+09
 # max total images/rank                        1
 # max 3D layers                                1
 # MPI messages exchanged                     384
 MPI messages size (bytes):
  total size                         8.397024E+06
  min size                           0.000000E+00
  max size                          91.584000E+03
  average size                      21.867250E+03
 MPI breakdown and total messages size (bytes):
             size <=      128                  84                        0
       128 < size <=     8192                 204                   869856
      8192 < size <=    32768                   0                        0
     32768 < size <=   131072                  96                  7527168
    131072 < size <=  4194304                   0                        0
   4194304 < size <= 16777216                   0                        0
  16777216 < size                               0                        0
 -------------------------------------------------------------------------------
 -                                                                             -
 -                      DBCSR MESSAGE PASSING PERFORMANCE                      -
 -                                                                             -
 -------------------------------------------------------------------------------
 ROUTINE             CALLS      AVE VOLUME [Bytes]
 MP_Bcast               21                     12.
 MP_Allreduce           85                     21.
 MP_Alltoall       4557895                   3337.
 MP_ISend               64                   9575.
 MP_IRecv               64                   8798.
 -------------------------------------------------------------------------------

 -------------------------------------------------------------------------------
 -                                                                             -
 -                                DBM STATISTICS                               -
 -                                                                             -
 -------------------------------------------------------------------------------
    M  x    N  x    K                                          COUNT     PERCENT
    ?  x    ?  x    ?                                      699303456      50.00%
    ?  x    ?  x  ???                                       69067008       4.94%
  ???  x    ?  x    ?                                       69067008       4.94%
   ??  x  ???  x   ??                                       57555840       4.12%
   ??  x   ??  x   ??                                       46044672       3.29%
   ??  x   ??  x  ???                                       40289088       2.88%
  ???  x   ??  x   ??                                       40289088       2.88%
    ?  x    ?  x >999                                       34533504       2.47%
    ?  x   ??  x  ???                                       34533504       2.47%
   ??  x    ?  x  ???                                       34533504       2.47%
  ???  x    ?  x   ??                                       34533504       2.47%
  ???  x   ??  x    ?                                       34533504       2.47%
 >999  x    ?  x    ?                                       34533504       2.47%
   ??  x  ???  x  ???                                       28777920       2.06%
  ???  x  ???  x   ??                                       28777920       2.06%
    ?  x   ??  x >999                                       17266752       1.23%
   ??  x    ?  x >999                                       17266752       1.23%
 >999  x    ?  x   ??                                       17266752       1.23%
 >999  x   ??  x    ?                                       17266752       1.23%
  ???  x  ???  x  ???                                       14388960       1.03%
  ???  x   ??  x  ???                                       11511168       0.82%
   ??  x   ??  x >999                                        8633376       0.62%
 >999  x   ??  x   ??                                        8633376       0.62%
 -------------------------------------------------------------------------------
 Memory consumption                            Number of allocations  Size [MiB]
 Host                                                             15           8
 -------------------------------------------------------------------------------

 -------------------------------------------------------------------------------
 -                                                                             -
 -                                GRID STATISTICS                              -
 -                                                                             -
 -------------------------------------------------------------------------------
 LP    KERNEL             BACKEND                              COUNT     PERCENT
 1     collocate ortho    CPU                                    896      17.50%
 1     integrate ortho    CPU                                    896      17.50%
 0     collocate ortho    CPU                                    664      12.97%
 0     integrate ortho    CPU                                    664      12.97%
 2     collocate ortho    CPU                                    528      10.31%
 2     integrate ortho    CPU                                    528      10.31%
 2     collocate general  CPU                                    192       3.75%
 2     integrate general  CPU                                    192       3.75%
 3     collocate ortho    CPU                                    160       3.12%
 3     integrate ortho    CPU                                    160       3.12%
 0     collocate general  CPU                                     96       1.88%
 0     integrate general  CPU                                     96       1.88%
 4     collocate ortho    CPU                                     24       0.47%
 4     integrate ortho    CPU                                     24       0.47%
 -------------------------------------------------------------------------------

 MEMORY| Estimated peak process memory [MiB]                                1653

 -------------------------------------------------------------------------------
 ----                             MULTIGRID INFO                            ----
 -------------------------------------------------------------------------------
 count for grid        1:         116518          cutoff [a.u.]          300.00
 count for grid        2:          20022          cutoff [a.u.]          100.00
 count for grid        3:          19559          cutoff [a.u.]           33.33
 count for grid        4:          10973          cutoff [a.u.]           11.11
 total gridlevel count  :         167072

 -------------------------------------------------------------------------------
 -                                                                             -
 -                         MESSAGE PASSING PERFORMANCE                         -
 -                                                                             -
 -------------------------------------------------------------------------------

 ROUTINE             CALLS      AVE VOLUME [Bytes]
 MP_Group          7374380
 MP_Bcast          3957745                     24.
 MP_Allreduce      8354365                     53.
 MP_Sync           5395886
 MP_Alltoall       3417438                   1078.
 MP_SendRecv            60                 337600.
 MP_ISendRecv          150                 137347.
 MP_Wait           5756056
 MP_comm_split     3956979
 MP_ISend         15108688                  63968.
 MP_IRecv         16187860                  59686.
 -------------------------------------------------------------------------------


 -------------------------------------------------------------------------------
 -                                                                             -
 -                           R E F E R E N C E S                               -
 -                                                                             -
 -------------------------------------------------------------------------------
 
 CP2K version 2025.1 (Development Version), the CP2K developers group (2025).
 CP2K is freely available from https://www.cp2k.org/ .
 
 M. Graml, K. Zollner, D. Hernangmez-Prez, P. E. Faria Junior, J. Wilhelm.
 J. Chem. Theory Comput. 20, 2202-2208 (2024).
 Low-scaling GW algorithm applied to twisted transition-metal dichalcogenide 
 heterobilayers.
 https://doi.org/10.1021/acs.jctc.3c01230

 T. D. Kuehne, M. Iannuzzi, M. Del Ben, V. V. Rybkin, P. Seewald, F. Stein, T. 
 Laino, R. Z. Khaliullin, O. Schuett, F. Schiffmann, D. Golze, J. Wilhelm, S. 
 Chulkov, M. H. Bani-Hashemian, V. Weber, U. Borstnik, M. Taillefumier, A. S. 
 Jakobovits, A. Lazzaro, H. Pabst, T. Mueller, R. Schade, M. Guidon, S. 
 Andermatt, N. Holmberg, G. K. Schenter, A. Hehn, A. Bussy, F. Belleflamme, G. 
 Tabacchi, A. Gloess, M. Lass, I. Bethune, C. J. Mundy, C. Plessl, M. Watkins, 
 J. VandeVondele, M. Krack, J. Hutter.
 J. Chem. Phys. 152, 194103 (2020).
 CP2K: An electronic structure and molecular dynamics software package - 
 Quickstep: Efficient and accurate electronic structure calculations.
 https://doi.org/10.1063/5.0007045

 O. Schuett, P. Messmer, J. Hutter, J. VandeVondele.
 Electronic Structure Calculations on Graphics Processing Units, 173-190 (2016).
 GPU-Accelerated Sparse Matrix-Matrix Multiplication for Linear Scaling Density 
 Functional Theory.
 https://doi.org/10.1002/9781118670712.ch8

 A. Heinecke, G. Henry, M. Hutchinson, H. Pabst.
 Proceedings of Intl. Supercomputing Conference, 981-991 (2016).
 LIBXSMM: Accelerating Small Matrix Multiplications by Runtime Code Generation.
 https://doi.org/10.1109/SC.2016.83

 J. Hutter, M. Iannuzzi, F. Schiffmann, J. VandeVondele.
 WIREs Comput Mol Sci. 4, 15-25 (2014).
 CP2K: atomistic simulations of condensed matter systems.
 https://doi.org/10.1002/wcms.1159

 U. Borstnik, J. VandeVondele, V. Weber, J. Hutter.
 Parallel Comput. 40, 47-58 (2014).
 Sparse matrix multiplication: The distributed block-compressed sparse row 
 library.
 https://doi.org/10.1016/j.parco.2014.03.012

 M. Guidon, J. Hutter, J. VandeVondele.
 J. Chem. Theory Comput. 5, 3010-3021 (2009).
 Robust Periodic Hartree-Fock Exchange for Large-Scale Simulations Using 
 Gaussian Basis Sets.
 https://doi.org/10.1021/ct900494g

 M. Guidon, F. Schiffmann, J. Hutter, J. VandeVondele.
 J. Chem. Phys. 128, 214104 (2008).
 Ab initio molecular dynamics using hybrid density functionals.
 https://doi.org/10.1063/1.2931945

 L. Genovese, T. Deutsch, S. Goedecker.
 J. Chem. Phys. 127, 054704 (2007).
 Efficient and accurate three-dimensional Poisson solver for surface problems.
 https://doi.org/10.1063/1.2754685

 L. Genovese, T. Deutsch, A. Neelov, S. Goedecker, G. Beylkin.
 J. Chem. Phys. 125, 074105 (2006).
 Efficient solution of Poisson's equation with free boundary conditions.
 https://doi.org/10.1063/1.2335442

 M. Frigo, S. G. Johnson.
 Proc. IEEE 93, 216-231 (2005).
 The design and implementation of FFTW3.
 https://doi.org/10.1109/JPROC.2004.840301

 M. Krack, M. Parrinello.
 Phys. Chem. Chem. Phys. 2, 2105-2112 (2000).
 All-electron ab-initio molecular dynamics.
 https://doi.org/10.1039/b001167n

 G. Lippert, J. Hutter, M. Parrinello.
 Theor. Chem. Acc. 103, 124-140 (1999).
 The Gaussian and augmented-plane-wave density functional method for ab initio 
 molecular dynamics simulations.
 https://doi.org/10.1007/s002140050523

 J. P. Perdew, K. Burke, M. Ernzerhof.
 Phys. Rev. Lett. 77, 3865-3868 (1996).
 Generalized gradient approximation made simple.
 https://doi.org/10.1103/PhysRevLett.77.3865


 -------------------------------------------------------------------------------
 -                                                                             -
 -                                T I M I N G                                  -
 -                                                                             -
 -------------------------------------------------------------------------------
 SUBROUTINE                       CALLS  ASD         SELF TIME        TOTAL TIME
                                MAXIMUM       AVERAGE  MAXIMUM  AVERAGE  MAXIMUM
 CP2K                                 1  1.0    0.024    0.037 7860.887 7860.919
 run_propagation_bse                  1  2.0    2.083   11.673 7859.594 7860.128
 etrs_scf_loop                    20001  3.0    0.358    0.426 7633.145 7634.518
 update_effective_ham             59953  4.0    1.702    1.783 7378.233 7383.148
 get_sigma                       179862  5.0    4.077    4.270 7247.892 7249.382
 dbt_total                       539587  6.0    4.341    4.602 7136.418 7136.573
 dbt_contract                    539586  7.0   33.552   35.247 6994.981 7122.070
 dbt_tas_multiply               1079172  9.5    2.336    2.485 5460.538 5529.129
 dbt_tas_total                  1079172 10.5  119.174  124.709 5373.189 5373.468
 dbt_tas_dbm                    1079172 11.5    2.515    2.984 2117.476 2117.921
 dbm_multiply                   1079172 13.5 1930.310 2083.173 1930.310 2083.173
 dbt_copy                        719449  8.5    3.868    4.063  894.627 1198.635
 dbt_remap                       719448  8.0   83.583   85.540 1048.291 1128.327
 dbt_reshape                     539586  9.7  427.907  539.415  793.639 1075.971
 dbt_tas_estimate_result_nze     539586 10.0  243.095  324.557 1054.441 1054.641
 mp_sync                        5395886 10.6  625.757 1020.307  625.757 1020.307
 dbt_tas_mm_3N                   359724 12.5    0.596    0.652  939.180  942.021
 dbt_tas_mm_2                    359724 12.5    1.125    1.314  674.066  674.310
 convert_to_new_pgrid           3237516 11.5  197.615  219.786  581.052  618.833
 dbm_redistribute               1079172 12.2  531.311  565.995  531.311  565.995
 dbt_tas_create_split           3956974 12.4    6.090    6.280  527.851  564.128
 dbt_tas_create_split_rows_or_c 3956974 13.4   20.502   21.025  521.761  558.031
 dbt_tas_distribution_new       4316704 11.7  265.122  270.998  520.085  537.209
 mp_waitall_2                   5755584 14.1  260.594  535.588  260.594  535.588
 reshape_mm_compatible          1079172 11.5   23.731   24.417  481.898  500.286
 dbt_communicate_buffer          539586 10.7    3.809    4.051  277.846  485.744
 dbt_tas_mm_1N                   359724 12.5    0.525    0.628  416.594  479.520
 mp_cart_create                 7614273 12.7  377.940  466.170  386.104  475.508
 reshape_mm_small               1079172 11.5  110.445  112.210  458.272  473.044
 change_split                   1618758 12.0   10.296   10.674  439.309  458.108
 dbt_tas_reshape                1259034 11.9   15.787   16.200  353.578  391.709
 dbt_pgrid_create_expert        1438916 10.5    3.476    3.616  173.685  260.305
 dbm_reserve_blocks             4856280 13.6  196.792  252.349  196.792  252.349
 dbt_tas_reserve_blocks_index   3777108 12.9   12.024   13.562  196.355  247.154
 mp_comm_dup                    3417392 14.7  202.437  239.578  206.116  242.985
 dbt_distribution_new_expert    1438912  9.5   20.188   20.922  236.806  238.443
 dbt_tas_replicate              1079172 11.5   67.870   76.413  222.686  233.475
 propagate_density                79955  4.0    0.099    0.110  231.376  232.266
 dbt_nd_mp_comm                  719450  9.0    2.520    2.706  144.962  232.233
 bch_propagate                    79955  5.0    3.701    4.504  231.278  232.175
 mp_isend_dv                    9353080 14.3  126.754  221.251  126.754  221.251
 parallel_gemm_cfm              1599218  6.0    1.348    1.474  200.474  205.224
 dbt_tas_copy                    539587 12.0   91.320  128.462  159.469  204.456
 parallel_gemm_cfm_gemm         1599218  7.0    1.395    1.549  199.126  203.859
 cp_cfm_gemm                    1599218  8.0  197.731  202.310  197.731  202.310
 dbt_tas_communicate_buffer     2338206 13.7   24.186   27.943  156.504  165.084
 ft_simple                            8  3.0  163.408  163.963  163.408  163.963
 mp_comm_split_direct           3956976 14.4  159.760  160.603  161.920  162.646
 -------------------------------------------------------------------------------

 The number of warnings for this run is : 3
 
 -------------------------------------------------------------------------------
  **** **** ******  **  PROGRAM ENDED AT                 2025-02-10 20:28:01.697
 ***** ** ***  *** **   PROGRAM RAN ON                              i04r04c04s02
 **    ****   ******    PROGRAM RAN BY                                   di75qec
 ***** **    ** ** **   PROGRAM PROCESS ID                               1170933
  **** **  *******  **  PROGRAM STOPPED IN /hppfs/scratch/09/di75qec/Ethene_rtbs
                                           e_y_7.4280756
