 DBCSR| CPU Multiplication driver                                           XSMM (U)
 DBCSR| Multrec recursion limit                                              512 (U)
 DBCSR| Multiplication stack size                                           1000 (D)
 DBCSR| Maximum elements for images                                    UNLIMITED (U)
 DBCSR| Multiplicative factor virtual images                                   1 (U)
 DBCSR| Use multiplication densification                                       T (D)
 DBCSR| Multiplication size stacks                                             3 (U)
 DBCSR| Use memory pool for CPU allocation                                     F (U)
 DBCSR| Number of 3D layers                                               SINGLE (U)
 DBCSR| Use MPI memory allocation                                              F (U)
 DBCSR| Use RMA algorithm                                                      F (U)
 DBCSR| Use Communication thread                                               T (U)
 DBCSR| Communication thread load                                             79 (D)
 DBCSR| MPI: My process id                                                     0
 DBCSR| MPI: Number of processes                                              16
 DBCSR| OMP: Current number of threads                                         3
 DBCSR| OMP: Max number of threads                                             3
 DBCSR| Split modifier for TAS multiplication algorithm                  1.0E+00 (U)


  **** **** ******  **  PROGRAM STARTED AT               2024-12-02 15:53:50.484
 ***** ** ***  *** **   PROGRAM STARTED ON                          i01r03c02s10
 **    ****   ******    PROGRAM STARTED BY                               di75qec
 ***** **    ** ** **   PROGRAM PROCESS ID                               2141712
  **** **  *******  **  PROGRAM STARTED IN /hppfs/scratch/09/di75qec/Ethene_scf.
                                           4142576

 CP2K| version string:                 CP2K version 2024.3 (Development Version)
 CP2K| source code revision number:                                  git:29c2adf
 CP2K| cp2kflags: omp libint fftw3 libxc parallel scalapack xsmm max_contr=4    
 CP2K| is freely available from                            https://www.cp2k.org/
 CP2K| Program compiled at                       Thu 21 Nov 2024 04:40:02 PM CET
 CP2K| Program compiled on                                               login03
 CP2K| Program compiled for                                        Supermuc-foss
 CP2K| Data directory path               /dss/dsshome1/09/di75qec/CP2K-foss/data
 CP2K| Input file name                                                   scf.inp

 GLOBAL| Force Environment number                                              1
 GLOBAL| Basis set file name                                         aug-cc-pvdz
 GLOBAL| Potential file name                                      ALL_POTENTIALS
 GLOBAL| MM Potential file name                                     MM_POTENTIAL
 GLOBAL| Coordinate file name                                          coord.xyz
 GLOBAL| Method name                                                        CP2K
 GLOBAL| Project name                                                     Ethene
 GLOBAL| Run type                                                 RT_PROPAGATION
 GLOBAL| FFT library                                                       FFTW3
 GLOBAL| Diagonalization library                                       ScaLAPACK
 GLOBAL| DGEMM library                                                      BLAS
 GLOBAL| Orthonormality check for eigenvectors                          DISABLED
 GLOBAL| Matrix multiplication library                                 ScaLAPACK
 GLOBAL| All-to-all communication in single precision                          F
 GLOBAL| FFTs using library dependent lengths                                  F
 GLOBAL| Grid backend                                                       AUTO
 GLOBAL| Global print level                                               MEDIUM
 GLOBAL| MPI I/O enabled                                                       T
 GLOBAL| Total number of message passing processes                            16
 GLOBAL| Number of threads for this process                                    3
 GLOBAL| This output is from process                                           0
 GLOBAL| Stack size for threads created by OpenMP (OMP_STACKSIZE)        default
 GLOBAL| CPU model name             Intel(R) Xeon(R) Platinum 8174 CPU @ 3.10GHz
 GLOBAL| CPUID                                                              1003
 GLOBAL| Compiled for CPUID                                                    0

 *** HINT in environment.F:921 :: The compiler target flags (generic) used ***
 *** to build this binary cannot exploit all extensions of this CPU model  ***
 *** (x86_avx512). Consider compiler target flags as part of FCFLAGS and   ***
 *** CFLAGS (ARCH file).                                                   ***


 MEMORY| system memory details [Kb]
 MEMORY|                        rank 0           min           max       average
 MEMORY| MemTotal             98436660      98436660      98436660      98436660
 MEMORY| MemFree              84252320      84252320      84252320      84252320
 MEMORY| Buffers                     0             0             0             0
 MEMORY| Cached                2360484       2360484       2360484       2360484
 MEMORY| Slab                  1105216       1105216       1105216       1105216
 MEMORY| SReclaimable           246288        246288        246288        246288
 MEMORY| MemLikelyFree        86859092      86859092      86859092      86859092


 *** Fundamental physical constants (SI units) ***

 *** Literature: B. J. Mohr and B. N. Taylor,
 ***             CODATA recommended values of the fundamental physical
 ***             constants: 2006, Web Version 5.1
 ***             http://physics.nist.gov/constants

 Speed of light in vacuum [m/s]                             2.99792458000000E+08
 Magnetic constant or permeability of vacuum [N/A**2]       1.25663706143592E-06
 Electric constant or permittivity of vacuum [F/m]          8.85418781762039E-12
 Planck constant (h) [J*s]                                  6.62606896000000E-34
 Planck constant (h-bar) [J*s]                              1.05457162825177E-34
 Elementary charge [C]                                      1.60217648700000E-19
 Electron mass [kg]                                         9.10938215000000E-31
 Electron g factor [ ]                                     -2.00231930436220E+00
 Proton mass [kg]                                           1.67262163700000E-27
 Fine-structure constant                                    7.29735253760000E-03
 Rydberg constant [1/m]                                     1.09737315685270E+07
 Avogadro constant [1/mol]                                  6.02214179000000E+23
 Boltzmann constant [J/K]                                   1.38065040000000E-23
 Atomic mass unit [kg]                                      1.66053878200000E-27
 Bohr radius [m]                                            5.29177208590000E-11

 *** Conversion factors ***

 [u] -> [a.u.]                                              1.82288848426455E+03
 [Angstrom] -> [Bohr] = [a.u.]                              1.88972613288564E+00
 [a.u.] = [Bohr] -> [Angstrom]                              5.29177208590000E-01
 [a.u.] -> [s]                                              2.41888432650478E-17
 [a.u.] -> [fs]                                             2.41888432650478E-02
 [a.u.] -> [J]                                              4.35974393937059E-18
 [a.u.] -> [N]                                              8.23872205491840E-08
 [a.u.] -> [K]                                              3.15774647902944E+05
 [a.u.] -> [kJ/mol]                                         2.62549961709828E+03
 [a.u.] -> [kcal/mol]                                       6.27509468713739E+02
 [a.u.] -> [Pa]                                             2.94210107994716E+13
 [a.u.] -> [bar]                                            2.94210107994716E+08
 [a.u.] -> [atm]                                            2.90362800883016E+08
 [a.u.] -> [eV]                                             2.72113838565563E+01
 [a.u.] -> [Hz]                                             6.57968392072181E+15
 [a.u.] -> [1/cm] (wave numbers)                            2.19474631370540E+05
 [a.u./Bohr**2] -> [1/cm]                                   5.14048714338585E+03
 

 CELL_TOP| Volume [angstrom^3]:                                      8000.000000
 CELL_TOP| Vector a [angstrom    20.000     0.000     0.000   |a| =    20.000000
 CELL_TOP| Vector b [angstrom     0.000    20.000     0.000   |b| =    20.000000
 CELL_TOP| Vector c [angstrom     0.000     0.000    20.000   |c| =    20.000000
 CELL_TOP| Angle (b,c), alpha [degree]:                                90.000000
 CELL_TOP| Angle (a,c), beta  [degree]:                                90.000000
 CELL_TOP| Angle (a,b), gamma [degree]:                                90.000000
 CELL_TOP| Numerically orthorhombic:                                         YES
 CELL_TOP| Periodicity                                                      NONE

 GENERATE|  Preliminary Number of Bonds generated:                             0
 GENERATE|  Achieved consistency in connectivity generation.

 CELL| Volume [angstrom^3]:                                          8000.000000
 CELL| Vector a [angstrom]:      20.000     0.000     0.000   |a| =    20.000000
 CELL| Vector b [angstrom]:       0.000    20.000     0.000   |b| =    20.000000
 CELL| Vector c [angstrom]:       0.000     0.000    20.000   |c| =    20.000000
 CELL| Angle (b,c), alpha [degree]:                                    90.000000
 CELL| Angle (a,c), beta  [degree]:                                    90.000000
 CELL| Angle (a,b), gamma [degree]:                                    90.000000
 CELL| Numerically orthorhombic:                                             YES
 CELL| Periodicity                                                          NONE

 CELL_REF| Volume [angstrom^3]:                                      8000.000000
 CELL_REF| Vector a [angstrom    20.000     0.000     0.000   |a| =    20.000000
 CELL_REF| Vector b [angstrom     0.000    20.000     0.000   |b| =    20.000000
 CELL_REF| Vector c [angstrom     0.000     0.000    20.000   |c| =    20.000000
 CELL_REF| Angle (b,c), alpha [degree]:                                90.000000
 CELL_REF| Angle (a,c), beta  [degree]:                                90.000000
 CELL_REF| Angle (a,b), gamma [degree]:                                90.000000
 CELL_REF| Numerically orthorhombic:                                         YES
 CELL_REF| Periodicity                                                      NONE

 *******************************************************************************
 *******************************************************************************
 **                                                                           **
 **     #####                         ##              ##                      **
 **    ##   ##            ##          ##              ##                      **
 **   ##     ##                       ##            ######                    **
 **   ##     ##  ##   ##  ##   #####  ##  ##   ####   ##    #####    #####    **
 **   ##     ##  ##   ##  ##  ##      ## ##   ##      ##   ##   ##  ##   ##   **
 **   ##  ## ##  ##   ##  ##  ##      ####     ###    ##   ######   ######    **
 **    ##  ###   ##   ##  ##  ##      ## ##      ##   ##   ##       ##        **
 **     #######   #####   ##   #####  ##  ##  ####    ##    #####   ##        **
 **           ##                                                    ##        **
 **                                                                           **
 **                                                ... make the atoms dance   **
 **                                                                           **
 **            Copyright (C) by CP2K developers group (2000-2024)             **
 **                      J. Chem. Phys. 152, 194103 (2020)                    **
 **                                                                           **
 *******************************************************************************

 DFT| Spin restricted Kohn-Sham (RKS) calculation                            RKS
 DFT| Multiplicity                                                             1
 DFT| Number of spin states                                                    1
 DFT| Charge                                                                   0
 DFT| Self-interaction correction (SIC)                                       NO
 DFT| Cutoffs: density                                              1.000000E-10
 DFT|          gradient                                             1.000000E-10
 DFT|          tau                                                  1.000000E-10
 DFT|          cutoff_smoothing_range                               0.000000E+00
 DFT| XC density smoothing                                                  NONE
 DFT| XC derivatives                                                          PW

 FUNCTIONAL| PBE:
 FUNCTIONAL| J.P.Perdew, K.Burke, M.Ernzerhof, Phys. Rev. Letter, vol. 77, n 18,
 FUNCTIONAL|  pp. 3865-3868, (1996)sx=0.750sc=1.000{spin unpolarized}           


 QS| Method:                                                                GAPW
 QS| Density plane wave grid type                        NON-SPHERICAL FULLSPACE
 QS| Number of grid levels:                                                    4
 QS| Density cutoff [a.u.]:                                                300.0
 QS| Multi grid cutoff [a.u.]: 1) grid level                               300.0
 QS|                           2) grid level                               100.0
 QS|                           3) grid level                                33.3
 QS|                           4) grid level                                11.1
 QS| Grid level progression factor:                                          3.0
 QS| Relative density cutoff [a.u.]:                                        30.0
 QS| Interaction thresholds: eps_pgf_orb:                                1.0E-05
 QS|                         eps_filter_matrix:                          0.0E+00
 QS|                         eps_core_charge:                            1.0E-12
 QS|                         eps_rho_gspace:                             1.0E-10
 QS|                         eps_rho_rspace:                             1.0E-10
 QS|                         eps_gvg_rspace:                             1.0E-05
 QS|                         eps_ppl:                                    1.0E-02
 QS|                         eps_ppnl:                                   1.0E-07
 QS| GAPW|      One center basis from orbital basis primitives
 QS| GAPW|                   eps_fit:                                    1.0E-04
 QS| GAPW|                   eps_iso:                                    1.0E-12
 QS| GAPW|                   eps_svd:                                    1.0E-08
 QS| GAPW|                   eps_cpc:                                    1.0E-10
 QS| GAPW|   atom-r-grid: quadrature:                                     GC_LOG
 QS| GAPW|      atom-s-grid:  max l :                                          4
 QS| GAPW|      max_l_rho0 :                                                   2


 ATOMIC KIND INFORMATION

  1. Atomic kind: H                                     Number of atoms:       4

     Orbital Basis Set                                               aug-cc-pvdz

       Number of orbital shell sets:                                           4
       Number of orbital shells:                                               5
       Number of primitive Cartesian functions:                                7
       Number of Cartesian basis functions:                                    9
       Number of spherical basis functions:                                    9
       Norm type:                                                              2

       Normalised Cartesian orbitals:

                        Set   Shell   Orbital            Exponent    Coefficient

                          1       1    1s               13.010000       0.096107
                                                         1.962000       0.163020
                                                         0.444600       0.185545
                                                         0.122000       0.073744

                          1       2    2s               13.010000       0.000000
                                                         1.962000       0.000000
                                                         0.444600       0.000000
                                                         0.122000       0.147123

                          2       1    1s                0.029740       0.051041

                          3       1    1px               0.727000       0.956881
                          3       1    1py               0.727000       0.956881
                          3       1    1pz               0.727000       0.956881

                          4       1    1px               0.141000       0.123158
                          4       1    1py               0.141000       0.123158
                          4       1    1pz               0.141000       0.123158

     RI Auxiliary Basis Set                                    aug-cc-pvdz-rifit

       Number of orbital shell sets:                                           9
       Number of orbital shells:                                               9
       Number of primitive Cartesian functions:                                9
       Number of Cartesian basis functions:                                   25
       Number of spherical basis functions:                                   23
       Norm type:                                                              2

       Normalised Cartesian orbitals:

                        Set   Shell   Orbital            Exponent    Coefficient

                          1       1    1s                5.115890       2.424381

                          2       1    1s                1.142965       0.787834

                          3       1    1s                0.291662       0.282859

                          4       1    1s                0.112720       0.138647

                          5       1    1px               1.914964       3.211004
                          5       1    1py               1.914964       3.211004
                          5       1    1pz               1.914964       3.211004

                          6       1    1px               0.986401       1.401222
                          6       1    1py               0.986401       1.401222
                          6       1    1pz               0.986401       1.401222

                          7       1    1px               0.285860       0.297942
                          7       1    1py               0.285860       0.297942
                          7       1    1pz               0.285860       0.297942

                          8       1    1dx2              1.172083       2.173136
                          8       1    1dxy              1.172083       3.763982
                          8       1    1dxz              1.172083       3.763982
                          8       1    1dy2              1.172083       2.173136
                          8       1    1dyz              1.172083       3.763982
                          8       1    1dz2              1.172083       2.173136

                          9       1    1dx2              0.303821       0.204640
                          9       1    1dxy              0.303821       0.354446
                          9       1    1dxz              0.303821       0.354446
                          9       1    1dy2              0.303821       0.204640
                          9       1    1dyz              0.303821       0.354446
                          9       1    1dz2              0.303821       0.204640

       Atomic covalent radius [Angstrom]:                                  0.320

       Atomic van der Waals radius [Angstrom]:                             1.090

     The atoms of this atomic kind are PAW atoms (GAPW):
       Hard Gaussian function radius:                                      1.200
       Rho0 radius:                                                        1.200
       Maximum GTO radius used for PAW projector construction:            24.566

     GAPW Soft Basis Set                                        aug-cc-pvdz_soft

       Number of orbital shell sets:                                           4
       Number of orbital shells:                                               5
       Number of primitive Cartesian functions:                                6
       Number of Cartesian basis functions:                                    9
       Number of spherical basis functions:                                    9
       Norm type:                                                              2

       Normalised Cartesian orbitals:

                        Set   Shell   Orbital            Exponent    Coefficient

                          1       1    1s                1.962000       0.163020
                                                         0.444600       0.185545
                                                         0.122000       0.073744

                          1       2    2s                1.962000       0.000000
                                                         0.444600       0.000000
                                                         0.122000       0.147123

                          2       1    1s                0.029740       0.051041

                          3       1    1px               0.727000       0.956881
                          3       1    1py               0.727000       0.956881
                          3       1    1pz               0.727000       0.956881

                          4       1    1px               0.141000       0.123158
                          4       1    1py               0.141000       0.123158
                          4       1    1pz               0.141000       0.123158

     AE Potential information for                                            ALL

       Description:                                       All-electron potential
                                          Krack, Parrinello, PCCP 2, 2105 (2000)

       Gaussian exponent of the core charge distribution:              12.500000
       Electronic configuration (s p d ...):                           1   0   0

  2. Atomic kind: C                                     Number of atoms:       2

     Orbital Basis Set                                               aug-cc-pvdz

       Number of orbital shell sets:                                           6
       Number of orbital shells:                                               9
       Number of primitive Cartesian functions:                               17
       Number of Cartesian basis functions:                                   25
       Number of spherical basis functions:                                   23
       Norm type:                                                              2

       Normalised Cartesian orbitals:

                        Set   Shell   Orbital            Exponent    Coefficient

                          1       1    1s             6665.000000       0.363803
                                                      1000.000000       0.675392
                                                       228.000000       1.132301
                                                        64.710000       1.654004
                                                        21.060000       1.924978
                                                         7.495000       1.448149
                                                         2.797000       0.439427
                                                         0.521500       0.006650
                                                         0.159600      -0.000574

                          1       2    2s             6665.000000      -0.076756
                                                      1000.000000      -0.146257
                                                       228.000000      -0.239407
                                                        64.710000      -0.379069
                                                        21.060000      -0.448104
                                                         7.495000      -0.484201
                                                         2.797000      -0.196168
                                                         0.521500       0.238162
                                                         0.159600       0.104468

                          1       3    3s             6665.000000       0.000000
                                                      1000.000000       0.000000
                                                       228.000000       0.000000
                                                        64.710000       0.000000
                                                        21.060000       0.000000
                                                         7.495000       0.000000
                                                         2.797000       0.000000
                                                         0.521500       0.000000
                                                         0.159600       0.179964

                          2       1    1s                0.046900       0.071827

                          3       1    1px               9.439000       0.898722
                                                         2.002000       0.711071
                                                         0.545600       0.339917
                                                         0.151700       0.063270
                          3       1    1py               9.439000       0.898722
                                                         2.002000       0.711071
                                                         0.545600       0.339917
                                                         0.151700       0.063270
                          3       1    1pz               9.439000       0.898722
                                                         2.002000       0.711071
                                                         0.545600       0.339917
                                                         0.151700       0.063270

                          3       2    2px               9.439000       0.000000
                                                         2.002000       0.000000
                                                         0.545600       0.000000
                                                         0.151700       0.134950
                          3       2    2py               9.439000       0.000000
                                                         2.002000       0.000000
                                                         0.545600       0.000000
                                                         0.151700       0.134950
                          3       2    2pz               9.439000       0.000000
                                                         2.002000       0.000000
                                                         0.545600       0.000000
                                                         0.151700       0.134950

                          4       1    1px               0.040410       0.025826
                          4       1    1py               0.040410       0.025826
                          4       1    1pz               0.040410       0.025826

                          5       1    1dx2              0.550000       0.578155
                          5       1    1dxy              0.550000       1.001394
                          5       1    1dxz              0.550000       1.001394
                          5       1    1dy2              0.550000       0.578155
                          5       1    1dyz              0.550000       1.001394
                          5       1    1dz2              0.550000       0.578155

                          6       1    1dx2              0.151000       0.060203
                          6       1    1dxy              0.151000       0.104275
                          6       1    1dxz              0.151000       0.104275
                          6       1    1dy2              0.151000       0.060203
                          6       1    1dyz              0.151000       0.104275
                          6       1    1dz2              0.151000       0.060203

     RI Auxiliary Basis Set                                    aug-cc-pvdz-rifit

       Number of orbital shell sets:                                          22
       Number of orbital shells:                                              22
       Number of primitive Cartesian functions:                               22
       Number of Cartesian basis functions:                                   86
       Number of spherical basis functions:                                   72
       Norm type:                                                              2

       Normalised Cartesian orbitals:

                        Set   Shell   Orbital            Exponent    Coefficient

                          1       1    1s               62.745300      15.888979

                          2       1    1s               13.804500       5.104176

                          3       1    1s                4.772770       2.301378

                          4       1    1s                1.513330       0.972434

                          5       1    1s                0.782697       0.593069

                          6       1    1s                0.409072       0.364552

                          7       1    1s                0.206796       0.218558

                          8       1    1s                0.073830       0.100945

                          9       1    1px              20.885100      63.640823
                          9       1    1py              20.885100      63.640823
                          9       1    1pz              20.885100      63.640823

                         10       1    1px               6.005230      13.399918
                         10       1    1py               6.005230      13.399918
                         10       1    1pz               6.005230      13.399918

                         11       1    1px               1.720600       2.808924
                         11       1    1py               1.720600       2.808924
                         11       1    1pz               1.720600       2.808924

                         12       1    1px               0.754465       1.002280
                         12       1    1py               0.754465       1.002280
                         12       1    1pz               0.754465       1.002280

                         13       1    1px               0.321667       0.345301
                         13       1    1py               0.321667       0.345301
                         13       1    1pz               0.321667       0.345301

                         14       1    1px               0.125953       0.106954
                         14       1    1py               0.125953       0.106954
                         14       1    1pz               0.125953       0.106954

                         15       1    1dx2             10.171500      95.352748
                         15       1    1dxy             10.171500     165.155804
                         15       1    1dxz             10.171500     165.155804
                         15       1    1dy2             10.171500      95.352748
                         15       1    1dyz             10.171500     165.155804
                         15       1    1dz2             10.171500      95.352748

                         16       1    1dx2              2.678440       9.230024
                         16       1    1dxy              2.678440      15.986870
                         16       1    1dxz              2.678440      15.986870
                         16       1    1dy2              2.678440       9.230024
                         16       1    1dyz              2.678440      15.986870
                         16       1    1dz2              2.678440       9.230024

                         17       1    1dx2              0.922515       1.429266
                         17       1    1dxy              0.922515       2.475561
                         17       1    1dxz              0.922515       2.475561
                         17       1    1dy2              0.922515       1.429266
                         17       1    1dyz              0.922515       2.475561
                         17       1    1dz2              0.922515       1.429266

                         18       1    1dx2              0.340842       0.250252
                         18       1    1dxy              0.340842       0.433449
                         18       1    1dxz              0.340842       0.433449
                         18       1    1dy2              0.340842       0.250252
                         18       1    1dyz              0.340842       0.433449
                         18       1    1dz2              0.340842       0.250252

                         19       1    1dx2              0.110211       0.034698
                         19       1    1dxy              0.110211       0.060099
                         19       1    1dxz              0.110211       0.060099
                         19       1    1dy2              0.110211       0.034698
                         19       1    1dyz              0.110211       0.060099
                         19       1    1dz2              0.110211       0.034698

                         20       1    1fx3              2.742930      14.254027
                         20       1    1fx2y             2.742930      31.872974
                         20       1    1fx2z             2.742930      31.872974
                         20       1    1fxy2             2.742930      31.872974
                         20       1    1fxyz             2.742930      55.205610
                         20       1    1fxz2             2.742930      31.872974
                         20       1    1fy3              2.742930      14.254027
                         20       1    1fy2z             2.742930      31.872974
                         20       1    1fyz2             2.742930      31.872974
                         20       1    1fz3              2.742930      14.254027

                         21       1    1fx3              0.895756       1.149162
                         21       1    1fx2y             0.895756       2.569605
                         21       1    1fx2z             0.895756       2.569605
                         21       1    1fxy2             0.895756       2.569605
                         21       1    1fxyz             0.895756       4.450686
                         21       1    1fxz2             0.895756       2.569605
                         21       1    1fy3              0.895756       1.149162
                         21       1    1fy2z             0.895756       2.569605
                         21       1    1fyz2             0.895756       2.569605
                         21       1    1fz3              0.895756       1.149162

                         22       1    1fx3              0.317146       0.111119
                         22       1    1fx2y             0.317146       0.248470
                         22       1    1fx2z             0.317146       0.248470
                         22       1    1fxy2             0.317146       0.248470
                         22       1    1fxyz             0.317146       0.430362
                         22       1    1fxz2             0.317146       0.248470
                         22       1    1fy3              0.317146       0.111119
                         22       1    1fy2z             0.317146       0.248470
                         22       1    1fyz2             0.317146       0.248470
                         22       1    1fz3              0.317146       0.111119

       Atomic covalent radius [Angstrom]:                                  0.770

       Atomic van der Waals radius [Angstrom]:                             1.700

     The atoms of this atomic kind are PAW atoms (GAPW):
       Hard Gaussian function radius:                                      1.512
       Rho0 radius:                                                        1.512
       Maximum GTO radius used for PAW projector construction:            24.566

     GAPW Soft Basis Set                                        aug-cc-pvdz_soft

       Number of orbital shell sets:                                           6
       Number of orbital shells:                                               9
       Number of primitive Cartesian functions:                               10
       Number of Cartesian basis functions:                                   25
       Number of spherical basis functions:                                   23
       Norm type:                                                              2

       Normalised Cartesian orbitals:

                        Set   Shell   Orbital            Exponent    Coefficient

                          1       1    1s                2.797000       0.439427
                                                         0.521500       0.006650
                                                         0.159600      -0.000574

                          1       2    2s                2.797000      -0.196168
                                                         0.521500       0.238162
                                                         0.159600       0.104468

                          1       3    3s                2.797000       0.000000
                                                         0.521500       0.000000
                                                         0.159600       0.179964

                          2       1    1s                0.046900       0.071827

                          3       1    1px               2.002000       0.711071
                                                         0.545600       0.339917
                                                         0.151700       0.063270
                          3       1    1py               2.002000       0.711071
                                                         0.545600       0.339917
                                                         0.151700       0.063270
                          3       1    1pz               2.002000       0.711071
                                                         0.545600       0.339917
                                                         0.151700       0.063270

                          3       2    2px               2.002000       0.000000
                                                         0.545600       0.000000
                                                         0.151700       0.134950
                          3       2    2py               2.002000       0.000000
                                                         0.545600       0.000000
                                                         0.151700       0.134950
                          3       2    2pz               2.002000       0.000000
                                                         0.545600       0.000000
                                                         0.151700       0.134950

                          4       1    1px               0.040410       0.025826
                          4       1    1py               0.040410       0.025826
                          4       1    1pz               0.040410       0.025826

                          5       1    1dx2              0.550000       0.578155
                          5       1    1dxy              0.550000       1.001394
                          5       1    1dxz              0.550000       1.001394
                          5       1    1dy2              0.550000       0.578155
                          5       1    1dyz              0.550000       1.001394
                          5       1    1dz2              0.550000       0.578155

                          6       1    1dx2              0.151000       0.060203
                          6       1    1dxy              0.151000       0.104275
                          6       1    1dxz              0.151000       0.104275
                          6       1    1dy2              0.151000       0.060203
                          6       1    1dyz              0.151000       0.104275
                          6       1    1dz2              0.151000       0.060203

     AE Potential information for                                            ALL

       Description:                                       All-electron potential
                                          Krack, Parrinello, PCCP 2, 2105 (2000)

       Gaussian exponent of the core charge distribution:               4.109048
       Electronic configuration (s p d ...):                           4   2   0


 MOLECULE KIND INFORMATION


 All atoms are their own molecule, skipping detailed information


 TOTAL NUMBERS AND MAXIMUM NUMBERS

  Total number of            - Atomic kinds:                                   2
                             - Atoms:                                          6
                             - Shell sets:                                    28
                             - Shells:                                        38
                             - Primitive Cartesian functions:                 62
                             - Cartesian basis functions:                     86
                             - Spherical basis functions:                     82

  Maximum angular momentum of the orbital basis functions:                     2


 MODULE QUICKSTEP: ATOMIC COORDINATES IN ANGSTROM

   Atom Kind Element         X             Y             Z       Z(eff)     Mass
      1    1 H     1     10.000000     10.923274     11.238289   1.0000   1.0079
      2    1 H     1     10.000000      9.076726     11.238289   1.0000   1.0079
      3    1 H     1     10.000000     10.923274      8.761711   1.0000   1.0079
      4    1 H     1     10.000000      9.076726      8.761711   1.0000   1.0079
      5    2 C     6     10.000000     10.000000     10.668188   6.0000  12.0107
      6    2 C     6     10.000000     10.000000      9.331812   6.0000  12.0107



 SCF PARAMETERS         Density guess:                                   RESTART
                        --------------------------------------------------------
                        max_scf:                                             200
                        max_scf_history:                                       0
                        max_diis:                                              4
                        --------------------------------------------------------
                        eps_scf:                                        1.00E-09
                        eps_scf_history:                                0.00E+00
                        eps_diis:                                       1.00E-01
                        eps_eigval:                                     1.00E-05
                        --------------------------------------------------------
                        level_shift [a.u.]:                             0.000000
                        added MOs                                        74    0
                        --------------------------------------------------------
                        Mixing method:                            BROYDEN_MIXING
                                                charge density mixing in g-space
                        --------------------------------------------------------
                        No outer SCF

 PW_GRID| Information for grid number                                          1
 PW_GRID| Grid distributed over                                    16 processors
 PW_GRID| Real space group dimensions                                    16    1
 PW_GRID| the grid is blocked:                                                NO
 PW_GRID| Cutoff [a.u.]                                                    300.0
 PW_GRID| spherical cutoff:                                                   NO
 PW_GRID|   Bounds   1           -150     149                Points:         300
 PW_GRID|   Bounds   2           -150     149                Points:         300
 PW_GRID|   Bounds   3           -150     149                Points:         300
 PW_GRID| Volume element (a.u.^3)  0.2000E-02     Volume (a.u.^3)     53986.6767
 PW_GRID| Grid span                                                    FULLSPACE
 PW_GRID|   Distribution                         Average         Max         Min
 PW_GRID|   G-Vectors                          1687500.0     1687500     1687500
 PW_GRID|   G-Rays                                5625.0        5625        5625
 PW_GRID|   Real Space Points                  1687500.0     1710000     1620000

 PW_GRID| Information for grid number                                          2
 PW_GRID| Number of the reference grid                                         1
 PW_GRID| Grid distributed over                                    16 processors
 PW_GRID| Real space group dimensions                                    16    1
 PW_GRID| the grid is blocked:                                                NO
 PW_GRID| Cutoff [a.u.]                                                    100.0
 PW_GRID| spherical cutoff:                                                   NO
 PW_GRID|   Bounds   1            -90      89                Points:         180
 PW_GRID|   Bounds   2            -90      89                Points:         180
 PW_GRID|   Bounds   3            -90      89                Points:         180
 PW_GRID| Volume element (a.u.^3)  0.9257E-02     Volume (a.u.^3)     53986.6767
 PW_GRID| Grid span                                                    FULLSPACE
 PW_GRID|   Distribution                         Average         Max         Min
 PW_GRID|   G-Vectors                           364500.0      364680      364320
 PW_GRID|   G-Rays                                2025.0        2026        2024
 PW_GRID|   Real Space Points                   364500.0      388800      356400

 PW_GRID| Information for grid number                                          3
 PW_GRID| Number of the reference grid                                         1
 PW_GRID| Grid distributed over                                    16 processors
 PW_GRID| Real space group dimensions                                    16    1
 PW_GRID| the grid is blocked:                                                NO
 PW_GRID| Cutoff [a.u.]                                                     33.3
 PW_GRID| spherical cutoff:                                                   NO
 PW_GRID|   Bounds   1            -50      49                Points:         100
 PW_GRID|   Bounds   2            -50      49                Points:         100
 PW_GRID|   Bounds   3            -50      49                Points:         100
 PW_GRID| Volume element (a.u.^3)  0.5399E-01     Volume (a.u.^3)     53986.6767
 PW_GRID| Grid span                                                    FULLSPACE
 PW_GRID|   Distribution                         Average         Max         Min
 PW_GRID|   G-Vectors                            62500.0       62600       62400
 PW_GRID|   G-Rays                                 625.0         626         624
 PW_GRID|   Real Space Points                    62500.0       70000       60000

 PW_GRID| Information for grid number                                          4
 PW_GRID| Number of the reference grid                                         1
 PW_GRID| Grid distributed over                                    16 processors
 PW_GRID| Real space group dimensions                                    16    1
 PW_GRID| the grid is blocked:                                                NO
 PW_GRID| Cutoff [a.u.]                                                     11.1
 PW_GRID| spherical cutoff:                                                   NO
 PW_GRID|   Bounds   1            -30      29                Points:          60
 PW_GRID|   Bounds   2            -30      29                Points:          60
 PW_GRID|   Bounds   3            -30      29                Points:          60
 PW_GRID| Volume element (a.u.^3)  0.2499         Volume (a.u.^3)     53986.6767
 PW_GRID| Grid span                                                    FULLSPACE
 PW_GRID|   Distribution                         Average         Max         Min
 PW_GRID|   G-Vectors                            13500.0       13560       13440
 PW_GRID|   G-Rays                                 225.0         226         224
 PW_GRID|   Real Space Points                    13500.0       14400       10800

 POISSON| Solver                                                         WAVELET
 POISSON| Wavelet| Scaling function                                           40
 POISSON| Periodicity                                                       NONE

 RS_GRID| Information for grid number                                          1
 RS_GRID|   Bounds   1           -150     149                Points:         300
 RS_GRID|   Bounds   2           -150     149                Points:         300
 RS_GRID|   Bounds   3           -150     149                Points:         300
 RS_GRID| Real space distribution over                                  4 groups
 RS_GRID| Real space distribution along direction                              2
 RS_GRID| Border size                                                         24
 RS_GRID| Real space distribution over                                  4 groups
 RS_GRID| Real space distribution along direction                              3
 RS_GRID| Border size                                                         24
 RS_GRID|   Distribution                         Average         Max         Min
 RS_GRID|   Planes                                 123.0         123         123
 RS_GRID|   Distribution                         Average         Max         Min
 RS_GRID|   Planes                                 123.0         123         123

 RS_GRID| Information for grid number                                          2
 RS_GRID|   Bounds   1            -90      89                Points:         180
 RS_GRID|   Bounds   2            -90      89                Points:         180
 RS_GRID|   Bounds   3            -90      89                Points:         180
 RS_GRID| Real space distribution over                                  4 groups
 RS_GRID| Real space distribution along direction                              2
 RS_GRID| Border size                                                         25
 RS_GRID| Real space distribution over                                  4 groups
 RS_GRID| Real space distribution along direction                              3
 RS_GRID| Border size                                                         25
 RS_GRID|   Distribution                         Average         Max         Min
 RS_GRID|   Planes                                  95.0          95          95
 RS_GRID|   Distribution                         Average         Max         Min
 RS_GRID|   Planes                                  95.0          95          95

 RS_GRID| Information for grid number                                          3
 RS_GRID|   Bounds   1            -50      49                Points:         100
 RS_GRID|   Bounds   2            -50      49                Points:         100
 RS_GRID|   Bounds   3            -50      49                Points:         100
 RS_GRID| Real space fully replicated
 RS_GRID| Group size                                                           1

 RS_GRID| Information for grid number                                          4
 RS_GRID|   Bounds   1            -30      29                Points:          60
 RS_GRID|   Bounds   2            -30      29                Points:          60
 RS_GRID|   Bounds   3            -30      29                Points:          60
 RS_GRID| Real space fully replicated
 RS_GRID| Group size                                                           1

  HFX_INFO| Replica ID:                                                        1
  HFX_INFO| FRACTION:                                               0.2500000000
  HFX_INFO| Interaction Potential:                                       COULOMB
  HFX_INFO| EPS_SCHWARZ:                                                 1.0E-10
  HFX_INFO| EPS_SCHWARZ_FORCES                                           1.0E-08
  HFX_INFO| EPS_STORAGE_SCALING:                                         1.0E+00
  HFX_INFO| NBINS:                                                            64
  HFX_INFO| BLOCK_SIZE:                                                        1
  HFX_INFO| Number of periodic shells considered:                           NONE
  HFX_INFO| Number of periodic cells considered:                            NONE


 Number of electrons:                                                         16
 Number of occupied orbitals:                                                  8
 Number of molecular orbitals:                                                82

 Number of orbital functions:                                                 82
 Number of independent orbital functions:                                     82

 Extrapolation method: initial_guess

 *** WARNING in qs_initial_guess.F:306 :: User requested to restart the    ***
 *** wavefunction from the file named: Ethene-RESTART.wfn. This file does  ***
 *** not exist. Please check the existence of the file or change properly  ***
 *** the value of the keyword WFN_RESTART_FILE_NAME. Calculation continues ***
 *** using ATOMIC GUESS.                                                   ***


 Atomic guess: The first density matrix is obtained in terms of atomic orbitals
               and electronic configurations assigned to each atomic kind

 Guess for atomic kind: H

 Electronic structure
    Total number of core electrons                                          0.00
    Total number of valence electrons                                       1.00
    Total number of electrons                                               1.00
    Multiplicity                                                   not specified
    S      1.00


 *******************************************************************************
                  Iteration          Convergence                     Energy [au]
 *******************************************************************************
                          1        0.880988E-02                  -0.444778274653
                          2        0.791349E-03                  -0.444877834394
                          3        0.111042E-03                  -0.444880192149
                          4        0.306660E-07                  -0.444880212296

 Energy components [Hartree]           Total Energy ::           -0.444880212296
                                        Band Energy ::           -0.232361879729
                                     Kinetic Energy ::            0.420568354334
                                   Potential Energy ::           -0.865448566630
                                      Virial (-V/T) ::            2.057807150044
                                        Core Energy ::           -0.495477856147
                                          XC Energy ::           -0.232385335983
                                     Coulomb Energy ::            0.282982979834

 Orbital energies  State     L     Occupation   Energy[a.u.]          Energy[eV]

                       1     0          1.000      -0.232362           -6.322888


 Total Electron Density at R=0:                                         0.221399

 Guess for atomic kind: C

 Electronic structure
    Total number of core electrons                                          0.00
    Total number of valence electrons                                       6.00
    Total number of electrons                                               6.00
    Multiplicity                                                   not specified
    S      2.00  2.00
    P      2.00


 *******************************************************************************
                  Iteration          Convergence                     Energy [au]
 *******************************************************************************
                          1        0.121977                     -37.400018089324
                          2        0.904329E-01                 -37.406032348656
                          3        0.638681E-03                 -37.414959418976
                          4        0.141121E-03                 -37.414959795862
                          5        0.446247E-06                 -37.414959815731

 Energy components [Hartree]           Total Energy ::          -37.414959815731
                                        Band Energy ::          -21.286259476185
                                     Kinetic Energy ::           37.482739917864
                                   Potential Energy ::          -74.897699733595
                                      Virial (-V/T) ::            1.998191698305
                                        Core Energy ::          -50.304318516063
                                          XC Energy ::           -4.741579470163
                                     Coulomb Energy ::           17.630938170495

 Orbital energies  State     L     Occupation   Energy[a.u.]          Energy[eV]

                       1     0          2.000      -9.942952         -270.561481
                       2     0          2.000      -0.501864          -13.656426

                       1     1          2.000      -0.198313           -5.396382


 Total Electron Density at R=0:                                       121.940282
 Re-scaling the density matrix to get the right number of electrons
                  # Electrons              Trace(P)               Scaling factor
                           16                16.000                        1.000


 SCF WAVEFUNCTION OPTIMIZATION

  Step     Update method      Time    Convergence         Total energy    Change
  ------------------------------------------------------------------------------

  HFX_MEM_INFO| Est. max. program size before HFX [MiB]:                    1241
  HFX_MEM_INFO| Number of cart. primitive ERI's calculated:             38197542
  HFX_MEM_INFO| Number of sph. ERI's calculated:                         8837367
  HFX_MEM_INFO| Number of sph. ERI's stored in-core:                     8837367
  HFX_MEM_INFO| Number of sph. ERI's stored on disk:                           0
  HFX_MEM_INFO| Number of sph. ERI's calculated on the fly:                    0
  HFX_MEM_INFO| Total memory consumption ERI's RAM [MiB]:                     24
  HFX_MEM_INFO| Whereof max-vals [MiB]:                                        1
  HFX_MEM_INFO| Total compression factor ERI's RAM:                         2.83
  HFX_MEM_INFO| Total memory consumption ERI's disk [MiB]:                     0
  HFX_MEM_INFO| Total compression factor ERI's disk:                        0.00
  HFX_MEM_INFO| Size of density/Fock matrix [MiB]:                             0
  HFX_MEM_INFO| Size of buffers [MiB]:                                         0
  HFX_MEM_INFO| Est. max. program size after HFX  [MiB]:                    1590

     1 NoMix/Diag. 0.40E+00    4.6     0.93549168       -78.6887348306 -7.87E+01
     2 Broy./Diag. 0.40E+00    3.0     0.20723329       -76.9839405146  1.70E+00
     3 Broy./Diag. 0.40E+00    3.1     0.17052831       -78.0745227008 -1.09E+00
     4 Broy./Diag. 0.40E+00    3.1     0.06260917       -78.4401839028 -3.66E-01
     5 Broy./Diag. 0.40E+00    3.2     0.03271546       -78.3849590326  5.52E-02
     6 Broy./Diag. 0.40E+00    3.2     0.01168601       -78.4852104767 -1.00E-01
     7 Broy./Diag. 0.40E+00    3.2     0.00838174       -78.4817416155  3.47E-03
     8 Broy./Diag. 0.40E+00    3.2     0.00271302       -78.4709995576  1.07E-02
     9 Broy./Diag. 0.40E+00    3.2     0.00255373       -78.4901523165 -1.92E-02
    10 Broy./Diag. 0.40E+00    3.2     0.00134609       -78.4941328797 -3.98E-03
    11 Broy./Diag. 0.40E+00    3.2     0.00115929       -78.4907925548  3.34E-03
    12 Broy./Diag. 0.40E+00    3.2     0.00255144       -78.4911742908 -3.82E-04
    13 Broy./Diag. 0.40E+00    3.2     0.00062864       -78.4909771512  1.97E-04
    14 Broy./Diag. 0.40E+00    3.2     0.00103768       -78.4905405691  4.37E-04
    15 Broy./Diag. 0.40E+00    3.2     0.00016399       -78.4907984869 -2.58E-04
    16 Broy./Diag. 0.40E+00    3.2     0.00019932       -78.4906617874  1.37E-04
    17 Broy./Diag. 0.40E+00    3.2     0.00024341       -78.4907594342 -9.76E-05
    18 Broy./Diag. 0.40E+00    3.2     0.00014720       -78.4907840598 -2.46E-05
    19 Broy./Diag. 0.40E+00    3.2     0.00010342       -78.4906368187  1.47E-04
    20 Broy./Diag. 0.40E+00    3.2     0.00014129       -78.4906260063  1.08E-05
    21 Broy./Diag. 0.40E+00    3.2     0.00005924       -78.4906333166 -7.31E-06
    22 Broy./Diag. 0.40E+00    3.2     0.00006437       -78.4905849218  4.84E-05
    23 Broy./Diag. 0.40E+00    3.2     0.00003462       -78.4905774105  7.51E-06
    24 Broy./Diag. 0.40E+00    3.2     0.00004527       -78.4905709444  6.47E-06
    25 Broy./Diag. 0.40E+00    3.2     0.00002290       -78.4905496875  2.13E-05
    26 Broy./Diag. 0.40E+00    3.2     0.00003772       -78.4905815784 -3.19E-05
    27 Broy./Diag. 0.40E+00    3.2     0.00001590       -78.4906083534 -2.68E-05
    28 Broy./Diag. 0.40E+00    3.2     0.00000979       -78.4905876103  2.07E-05
    29 Broy./Diag. 0.40E+00    3.2     0.00001239       -78.4905836200  3.99E-06
    30 Broy./Diag. 0.40E+00    3.2     0.00001105       -78.4905827597  8.60E-07
    31 Broy./Diag. 0.40E+00    3.2     0.00000718       -78.4905814435  1.32E-06
    32 Broy./Diag. 0.40E+00    3.3     0.00000458       -78.4905840181 -2.57E-06
    33 Broy./Diag. 0.40E+00    3.2     0.00000157       -78.4905849639 -9.46E-07
    34 Broy./Diag. 0.40E+00    3.2     0.00000071       -78.4905840326  9.31E-07
    35 Broy./Diag. 0.40E+00    3.2     0.00000019       -78.4905844730 -4.40E-07
    36 Broy./Diag. 0.40E+00    3.2     0.00000013       -78.4905844139  5.90E-08
    37 Broy./Diag. 0.40E+00    3.2     0.00000048       -78.4905842145  1.99E-07
    38 Broy./Diag. 0.40E+00    3.2     0.00000033       -78.4905843554 -1.41E-07
    39 Broy./Diag. 0.40E+00    3.2     0.00000008       -78.4905842486  1.07E-07
    40 Broy./Diag. 0.40E+00    3.2     0.00000004       -78.4905842055  4.31E-08
    41 Broy./Diag. 0.40E+00    3.3     0.00000005       -78.4905842197 -1.43E-08
    42 Broy./Diag. 0.40E+00    3.2     0.00000006       -78.4905842248 -5.09E-09
    43 Broy./Diag. 0.40E+00    3.2     0.00000004       -78.4905842481 -2.33E-08
    44 Broy./Diag. 0.40E+00    3.2     0.00000002       -78.4905842515 -3.43E-09
    45 Broy./Diag. 0.40E+00    3.2     0.00000001       -78.4905842461  5.40E-09
    46 Broy./Diag. 0.40E+00    3.2     0.00000003       -78.4905842475 -1.36E-09
    47 Broy./Diag. 0.40E+00    3.2     0.00000001       -78.4905842421  5.39E-09
    48 Broy./Diag. 0.40E+00    3.2     4.1941E-09       -78.4905842430 -9.06E-10
    49 Broy./Diag. 0.40E+00    3.3     1.7773E-09       -78.4905842475 -4.53E-09
    50 Broy./Diag. 0.40E+00    3.2     6.2004E-09       -78.4905842457  1.84E-09
    51 Broy./Diag. 0.40E+00    3.2     2.3168E-09       -78.4905842453  3.40E-10
    52 Broy./Diag. 0.40E+00    3.2     5.8155E-09       -78.4905842459 -5.77E-10
    53 Broy./Diag. 0.40E+00    3.2     2.6264E-09       -78.4905842452  6.62E-10
    54 Broy./Diag. 0.40E+00    3.2     2.9570E-09       -78.4905842458 -5.76E-10
    55 Broy./Diag. 0.40E+00    3.2     7.5383E-10       -78.4905842460 -1.38E-10

  *** SCF run converged in    55 steps ***


  Electronic density on regular grids:        -12.2459731229        3.7540268771
  Core density on regular grids:               16.0000000000       -0.0000000000
  Hard and soft densities (Lebedev):          -86.8588427729      -83.1048157716
  Total Rho_soft + Rho1_hard - Rho1_soft      -16.0000001242
  Total charge density (r-space):              -0.0000001242
  Total Rho_soft + Rho0_soft (g-space):        -0.0000001477

  Overlap energy of the core charge distribution:               0.00000835830349
  Self energy of the core charge distribution:                -63.86738907357999
  Core Hamiltonian energy:                                    -12.75022328908033
  Hartree energy:                                              26.05484888348845
  Exchange-correlation energy:                                 -3.88035624989061
  Hartree-Fock Exchange energy:                                -2.93159542178759

  GAPW| Exc from hard and soft atomic rho1:                    -5.36975429428891
  GAPW| local Eh = 1 center integrals:                        -15.74612315912745

  Total energy:                                               -78.49058424596294

 !-----------------------------------------------------------------------------!
                     Mulliken Population Analysis

 #  Atom  Element  Kind  Atomic population                           Net charge
       1     H        1          1.342477                             -0.342477
       2     H        1          1.342477                             -0.342477
       3     H        1          1.342477                             -0.342477
       4     H        1          1.342477                             -0.342477
       5     C        2          5.315047                              0.684953
       6     C        2          5.315047                              0.684953
 # Total charge                             16.000000                 -0.000000

 !-----------------------------------------------------------------------------!

 !-----------------------------------------------------------------------------!
                           Hirshfeld Charges

  #Atom  Element  Kind  Ref Charge     Population                    Net charge
      1       H      1       1.000          0.507                         0.493
      2       H      1       1.000          0.507                         0.493
      3       H      1       1.000          0.507                         0.493
      4       H      1       1.000          0.507                         0.493
      5       C      2       6.000          6.973                        -0.973
      6       C      2       6.000          6.973                        -0.973

  Total Charge                                                            0.024
 !-----------------------------------------------------------------------------!

 MOMENTS
  The electric/magnetic moments are written to file:
  Ethene-MOMENTS-moments-1.dat

  
 -------------------------------------------------------------------------------
 -                                                                             -
 -                          BANDSTRUCTURE CALCULATION                          -
 -                                                                             -
 -------------------------------------------------------------------------------
  
 Number of occupied molecular orbitals (MOs) = Number of occupied bands        8
 Number of unoccupied (= virtual) MOs = Number of unoccupied bands            74
 Number of Gaussian basis functions for MOs                                   82
 K-point mesh for the density of states (DOS) and the self-energy      1   1   1
  
 -------------------------------------------------------------------------------
 -                                                                             -
 -                              GW CALCULATION                                 -
 -                                                                             -
 -------------------------------------------------------------------------------
  
 Input: Number of time/freq. points                                           30
 Input: Filter threshold for sparse tensor operations                    1.0E-08
 Apply Hedin shift                                                             F
  
 Number of auxiliary Gaussian basis functions for , , W                    236
 Cutoff radius for the truncated Coulomb operator in ^x:               2645.9 
 Cutoff radius for the truncated Coulomb operator in RI metric:            3.0 
 Regularization parameter of RI                                          0.0E+00
 Lattice sum size for V(k):                                                    3
  
 K-point mesh 1 for , , W                                            1   1   1
 K-point mesh 2 for , , W (for k-point extrapolation of W)           1   1   1
 Approximate the k-point extrapolation                                         F
 Group size for tensor operations                                             16
 
 Computed 3-center integrals (|P), execution time                        0.4 s
 Percentage of non-zero (|P)                                         100.000 %
 Max. distance between , in non-zero (|P)                              3.1 A
 Required memory if storing all 3-center integrals (|P)                   0 GB
 
 Number of i and j atoms in M_P(), N_Q():                               32
 Number of inner loop atoms for  in M_P = sum_ (|P) G_                 6
 
 SCF direct band gap (eV)                                                   7.77
 Max. SCF eigval diff. (eV)                                               364.38
 E-Range for minimax grid                                                  46.88
 Number of Pad parameters for analytic continuation:                         16
 
 Computed (i,k=0) for time point            1 / 30,    Execution time    0.1 s
 Computed (i,k=0) for time point            2 / 30,    Execution time    0.1 s
 Computed (i,k=0) for time point            3 / 30,    Execution time    0.1 s
 Computed (i,k=0) for time point            4 / 30,    Execution time    0.1 s
 Computed (i,k=0) for time point            5 / 30,    Execution time    0.1 s
 Computed (i,k=0) for time point            6 / 30,    Execution time    0.1 s
 Computed (i,k=0) for time point            7 / 30,    Execution time    0.1 s
 Computed (i,k=0) for time point            8 / 30,    Execution time    0.1 s
 Computed (i,k=0) for time point            9 / 30,    Execution time    0.1 s
 Computed (i,k=0) for time point           10 / 30,    Execution time    0.1 s
 Computed (i,k=0) for time point           11 / 30,    Execution time    0.1 s
 Computed (i,k=0) for time point           12 / 30,    Execution time    0.1 s
 Computed (i,k=0) for time point           13 / 30,    Execution time    0.1 s
 Computed (i,k=0) for time point           14 / 30,    Execution time    0.1 s
 Computed (i,k=0) for time point           15 / 30,    Execution time    0.1 s
 Computed (i,k=0) for time point           16 / 30,    Execution time    0.1 s
 Computed (i,k=0) for time point           17 / 30,    Execution time    0.1 s
 Computed (i,k=0) for time point           18 / 30,    Execution time    0.1 s
 Computed (i,k=0) for time point           19 / 30,    Execution time    0.1 s
 Computed (i,k=0) for time point           20 / 30,    Execution time    0.1 s
 Computed (i,k=0) for time point           21 / 30,    Execution time    0.1 s
 Computed (i,k=0) for time point           22 / 30,    Execution time    0.1 s
 Computed (i,k=0) for time point           23 / 30,    Execution time    0.0 s
 Computed (i,k=0) for time point           24 / 30,    Execution time    0.0 s
 Computed (i,k=0) for time point           25 / 30,    Execution time    0.0 s
 Computed (i,k=0) for time point           26 / 30,    Execution time    0.0 s
 Computed (i,k=0) for time point           27 / 30,    Execution time    0.0 s
 Computed (i,k=0) for time point           28 / 30,    Execution time    0.0 s
 Computed (i,k=0) for time point           29 / 30,    Execution time    0.0 s
 Computed (i,k=0) for time point           30 / 30,    Execution time    0.0 s
 
 Computed W(i,k) for k-point batch           1 /  1,    Execution time    0.7 s
 
 Computed ^x(k=0),                                      Execution time    0.1 s
 
 Computed ^c(i,k=0) for time point          1 / 30,    Execution time    0.1 s
 Computed ^c(i,k=0) for time point          2 / 30,    Execution time    0.1 s
 Computed ^c(i,k=0) for time point          3 / 30,    Execution time    0.1 s
 Computed ^c(i,k=0) for time point          4 / 30,    Execution time    0.1 s
 Computed ^c(i,k=0) for time point          5 / 30,    Execution time    0.1 s
 Computed ^c(i,k=0) for time point          6 / 30,    Execution time    0.1 s
 Computed ^c(i,k=0) for time point          7 / 30,    Execution time    0.1 s
 Computed ^c(i,k=0) for time point          8 / 30,    Execution time    0.1 s
 Computed ^c(i,k=0) for time point          9 / 30,    Execution time    0.1 s
 Computed ^c(i,k=0) for time point         10 / 30,    Execution time    0.1 s
 Computed ^c(i,k=0) for time point         11 / 30,    Execution time    0.1 s
 Computed ^c(i,k=0) for time point         12 / 30,    Execution time    0.1 s
 Computed ^c(i,k=0) for time point         13 / 30,    Execution time    0.1 s
 Computed ^c(i,k=0) for time point         14 / 30,    Execution time    0.1 s
 Computed ^c(i,k=0) for time point         15 / 30,    Execution time    0.1 s
 Computed ^c(i,k=0) for time point         16 / 30,    Execution time    0.1 s
 Computed ^c(i,k=0) for time point         17 / 30,    Execution time    0.1 s
 Computed ^c(i,k=0) for time point         18 / 30,    Execution time    0.1 s
 Computed ^c(i,k=0) for time point         19 / 30,    Execution time    0.1 s
 Computed ^c(i,k=0) for time point         20 / 30,    Execution time    0.1 s
 Computed ^c(i,k=0) for time point         21 / 30,    Execution time    0.0 s
 Computed ^c(i,k=0) for time point         22 / 30,    Execution time    0.0 s
 Computed ^c(i,k=0) for time point         23 / 30,    Execution time    0.0 s
 Computed ^c(i,k=0) for time point         24 / 30,    Execution time    0.0 s
 Computed ^c(i,k=0) for time point         25 / 30,    Execution time    0.0 s
 Computed ^c(i,k=0) for time point         26 / 30,    Execution time    0.0 s
 Computed ^c(i,k=0) for time point         27 / 30,    Execution time    0.0 s
 Computed ^c(i,k=0) for time point         28 / 30,    Execution time    0.0 s
 Computed ^c(i,k=0) for time point         29 / 30,    Execution time    0.0 s
 Computed ^c(i,k=0) for time point         30 / 30,    Execution time    0.0 s
 
 Sparsity of ^c(i,k=0): Percentage of skipped atom pairs:               25.0 %
 Retaining nl_3c for RTBSE

 
 SCF valence band maximum (eV):                                           -7.847
 SCF conduction band minimum (eV):                                        -0.074
 SCF indirect band gap (eV):                                               7.773
 SCF direct band gap (eV):                                                 7.773
 
 G0W0 valence band maximum (eV):                                         -10.010
 G0W0 conduction band minimum (eV):                                        1.047
 G0W0 indirect band gap (eV):                                             11.057
 G0W0 direct band gap (eV):                                               11.057
 
 Hartree-Fock with SCF orbitals valence band maximum (eV):                -9.988
 Hartree-Fock with SCF orbitals conduction band minimum (eV)               1.382
 Hartree-Fock with SCF orbitals indirect band gap (eV):                   11.370
 Hartree-Fock with SCF orbitals direct band gap (eV):                     11.370

 ENERGY| Total FORCE_EVAL ( QS ) energy [a.u.]:              -78.490584245962935
 RTBSE| Approximate size of the 3c integrals                       0.12E+002 MiB
 
 /-----------------------------------------------------------------------------\
 |                                                                             |
 |                    Real Time Bethe-Salpeter Propagation                     |
 |                                                                             |
 \-----------------------------------------------------------------------------/
 
 Exponential method                                                          BCH
 Reference Hamiltonian                                                      G0W0
 Apply delta pulse                                                             T


 *** WARNING in emd/rt_bse_io.F:482 :: Restart required but no info file ***
 *** found - starting from sim_step given in input                       ***


 *** WARNING in emd/rt_bse_io.F:508 :: Restart without some restart ***
 *** matrices - starting from SCF density.                          ***


 *** WARNING in emd/rt_bse_io.F:561 :: Restart without previous moments - ***
 *** unknown moments trace set to zero.                                   ***

 RTBSE| Applying delta puls
 RTBSE| Delta pulse elements (a.u.) :   -0.1000E-003  -0.0000E+000  -0.0000E+000
 RTBSE| Metric difference after delta kick                       0.50296014E-004
 RTBSE| Simulation step         Convergence     Electron number  ETRS Iterations
 RTBSE|               0     0.90083478E-009     0.16000000E+002                2
 RTBSE| Simulation step         Convergence     Electron number  ETRS Iterations
 RTBSE|               1     0.93038131E-009     0.16000000E+002                2
 RTBSE| Simulation step         Convergence     Electron number  ETRS Iterations
 RTBSE|               2     0.10391703E-008     0.16000000E+002                2
 RTBSE| Simulation step         Convergence     Electron number  ETRS Iterations
 RTBSE|               3     0.11828281E-008     0.16000000E+002                2
 RTBSE| Simulation step         Convergence     Electron number  ETRS Iterations
 RTBSE|               4     0.13048446E-008     0.16000000E+002                2
 RTBSE| Simulation step         Convergence     Electron number  ETRS Iterations
 RTBSE|               5     0.13717653E-008     0.16000000E+002                2

 -------------------------------------------------------------------------------
 -                                                                             -
 -                                DBCSR STATISTICS                             -
 -                                                                             -
 -------------------------------------------------------------------------------
 COUNTER                                    TOTAL       BLAS       SMM       ACC
 flops    23 x    44 x    46               744832       0.0%    100.0%      0.0%     
 flops    23 x    44 x    72              1165824       0.0%    100.0%      0.0%     
 flops    72 x    44 x    46              1165824       0.0%    100.0%      0.0%     
 flops     9 x     9 x    18              1603800       0.0%    100.0%      0.0%     
 flops     9 x    23 x    18              1639440       0.0%    100.0%      0.0%     
 flops    23 x     9 x    18              1639440       0.0%    100.0%      0.0%     
 flops    72 x    44 x    72              1824768       0.0%    100.0%      0.0%     
 flops    23 x    23 x    18              3142260       0.0%    100.0%      0.0%     
 flops    23 x    64 x    46              3250176       0.0%    100.0%      0.0%     
 flops    72 x    64 x    46              5087232       0.0%    100.0%      0.0%     
 flops    23 x    64 x    72              5087232       0.0%    100.0%      0.0%     
 flops     9 x     9 x    32              5702400       0.0%    100.0%      0.0%     
 flops     9 x    23 x    32              5829120       0.0%    100.0%      0.0%     
 flops    23 x     9 x    32              5829120       0.0%    100.0%      0.0%     
 flops    72 x    64 x    72              7962624       0.0%    100.0%      0.0%     
 flops    23 x    23 x    32             11172480       0.0%    100.0%      0.0%     
 flops inhomo. stacks                           0       0.0%      0.0%      0.0%
 flops total                        62.846572E+06       0.0%    100.0%      0.0%
 flops max/rank                      6.946556E+06       0.0%    100.0%      0.0%
 matmuls inhomo. stacks                         0       0.0%      0.0%      0.0%
 matmuls total                               3561       0.0%    100.0%      0.0%
 number of processed stacks                  3066       0.0%    100.0%      0.0%
 average stack size                                     0.0       1.2       0.0
 marketing flops                    32.205632E+06
 -------------------------------------------------------------------------------
 # multiplications                             56
 max memory usage/rank               1.830236E+09
 # max total images/rank                        1
 # max 3D layers                                1
 # MPI messages exchanged                    5376
 MPI messages size (bytes):
  total size                        20.424768E+06
  min size                           0.000000E+00
  max size                          41.472000E+03
  average size                       3.799250E+03
 MPI breakdown and total messages size (bytes):
             size <=      128                1320                        0
       128 < size <=     8192                3960                 17751360
      8192 < size <=    32768                  66                  1512192
     32768 < size <=   131072                  30                  1161216
    131072 < size <=  4194304                   0                        0
   4194304 < size <= 16777216                   0                        0
  16777216 < size                               0                        0
 -------------------------------------------------------------------------------
 -                                                                             -
 -                      DBCSR MESSAGE PASSING PERFORMANCE                      -
 -                                                                             -
 -------------------------------------------------------------------------------
 ROUTINE             CALLS      AVE VOLUME [Bytes]
 MP_Bcast               17                     12.
 MP_Allreduce          502                     10.
 MP_Alltoall          6520                   4480.
 MP_ISend              896                   2141.
 MP_IRecv              896                   1385.
 -------------------------------------------------------------------------------

 -------------------------------------------------------------------------------
 -                                                                             -
 -                                DBM STATISTICS                               -
 -                                                                             -
 -------------------------------------------------------------------------------
    M  x    N  x    K                                          COUNT     PERCENT
    ?  x    ?  x    ?                                         433925      49.99%
  ???  x    ?  x    ?                                          72192       8.32%
   ??  x   ??  x   ??                                          56448       6.50%
   ??  x  ???  x   ??                                          56160       6.47%
    ?  x    ?  x  ???                                          48714       5.61%
  ???  x    ?  x   ??                                          36096       4.16%
  ???  x   ??  x    ?                                          36096       4.16%
   ??  x   ??  x  ???                                          27240       3.14%
    ?  x   ??  x  ???                                          24414       2.81%
   ??  x    ?  x  ???                                          24393       2.81%
  ???  x   ??  x   ??                                          18176       2.09%
 >999  x    ?  x    ?                                           9024       1.04%
    ?  x    ?  x >999                                           6144       0.71%
 >999  x    ?  x   ??                                           4512       0.52%
 >999  x   ??  x    ?                                           4512       0.52%
    ?  x   ??  x >999                                           3072       0.35%
   ??  x    ?  x >999                                           3072       0.35%
 >999  x   ??  x   ??                                           2272       0.26%
   ??  x   ??  x >999                                           1536       0.18%
 -------------------------------------------------------------------------------

 -------------------------------------------------------------------------------
 -                                                                             -
 -                                GRID STATISTICS                              -
 -                                                                             -
 -------------------------------------------------------------------------------
 LP    KERNEL             BACKEND                              COUNT     PERCENT
 1     collocate ortho    CPU                                  25088      18.16%
 1     integrate ortho    CPU                                  25088      18.16%
 0     collocate ortho    CPU                                  18592      13.46%
 0     integrate ortho    CPU                                  18592      13.46%
 2     collocate ortho    CPU                                  14784      10.70%
 2     integrate ortho    CPU                                  14784      10.70%
 2     collocate general  CPU                                   5376       3.89%
 2     integrate general  CPU                                   5376       3.89%
 3     collocate ortho    CPU                                   4480       3.24%
 3     integrate ortho    CPU                                   4480       3.24%
 4     collocate ortho    CPU                                    672       0.49%
 4     integrate ortho    CPU                                    672       0.49%
 0     collocate general  CPU                                     96       0.07%
 0     integrate general  CPU                                     96       0.07%
 -------------------------------------------------------------------------------

 MEMORY| Estimated peak process memory [MiB]                                1755

 -------------------------------------------------------------------------------
 ----                             MULTIGRID INFO                            ----
 -------------------------------------------------------------------------------
 count for grid        1:         116454          cutoff [a.u.]          300.00
 count for grid        2:          19638          cutoff [a.u.]          100.00
 count for grid        3:          19303          cutoff [a.u.]           33.33
 count for grid        4:          10973          cutoff [a.u.]           11.11
 total gridlevel count  :         166368

 -------------------------------------------------------------------------------
 -                                                                             -
 -                         MESSAGE PASSING PERFORMANCE                         -
 -                                                                             -
 -------------------------------------------------------------------------------

 ROUTINE             CALLS      AVE VOLUME [Bytes]
 MP_Group             4463
 MP_Bcast             3316                   9781.
 MP_Allreduce         8162                   1612.
 MP_Sync              4684
 MP_Alltoall          4093               25157771.
 MP_SendRecv          1680                 337600.
 MP_ISendRecv         3390                 169431.
 MP_Wait             15678
 MP_comm_split        2492
 MP_ISend            16857                 589872.
 MP_IRecv            16861                 589714.
 -------------------------------------------------------------------------------


 -------------------------------------------------------------------------------
 -                                                                             -
 -                           R E F E R E N C E S                               -
 -                                                                             -
 -------------------------------------------------------------------------------
 
 CP2K version 2024.3 (Development Version), the CP2K developers group (2024).
 CP2K is freely available from https://www.cp2k.org/ .
 
 M. Graml, K. Zollner, D. Hernangmez-Prez, P. E. Faria Junior, J. Wilhelm.
 J. Chem. Theory Comput. 20, 2202-2208 (2024).
 Low-scaling GW algorithm applied to twisted transition-metal dichalcogenide 
 heterobilayers.
 https://doi.org/10.1021/acs.jctc.3c01230

 T. D. Kuehne, M. Iannuzzi, M. Del Ben, V. V. Rybkin, P. Seewald, F. Stein, T. 
 Laino, R. Z. Khaliullin, O. Schuett, F. Schiffmann, D. Golze, J. Wilhelm, S. 
 Chulkov, M. H. Bani-Hashemian, V. Weber, U. Borstnik, M. Taillefumier, A. S. 
 Jakobovits, A. Lazzaro, H. Pabst, T. Mueller, R. Schade, M. Guidon, S. 
 Andermatt, N. Holmberg, G. K. Schenter, A. Hehn, A. Bussy, F. Belleflamme, G. 
 Tabacchi, A. Gloess, M. Lass, I. Bethune, C. J. Mundy, C. Plessl, M. Watkins, 
 J. VandeVondele, M. Krack, J. Hutter.
 J. Chem. Phys. 152, 194103 (2020).
 CP2K: An electronic structure and molecular dynamics software package - 
 Quickstep: Efficient and accurate electronic structure calculations.
 https://doi.org/10.1063/5.0007045

 O. Schuett, P. Messmer, J. Hutter, J. VandeVondele.
 Electronic Structure Calculations on Graphics Processing Units, 173-190 (2016).
 GPU-Accelerated Sparse Matrix-Matrix Multiplication for Linear Scaling Density 
 Functional Theory.
 https://doi.org/10.1002/9781118670712.ch8

 A. Heinecke, G. Henry, M. Hutchinson, H. Pabst.
 Proceedings of Intl. Supercomputing Conference, 981-991 (2016).
 LIBXSMM: Accelerating Small Matrix Multiplications by Runtime Code Generation.
 https://doi.org/10.1109/SC.2016.83

 J. Hutter, M. Iannuzzi, F. Schiffmann, J. VandeVondele.
 WIREs Comput Mol Sci. 4, 15-25 (2014).
 CP2K: atomistic simulations of condensed matter systems.
 https://doi.org/10.1002/wcms.1159

 U. Borstnik, J. VandeVondele, V. Weber, J. Hutter.
 Parallel Comput. 40, 47-58 (2014).
 Sparse matrix multiplication: The distributed block-compressed sparse row 
 library.
 https://doi.org/10.1016/j.parco.2014.03.012

 M. Guidon, J. Hutter, J. VandeVondele.
 J. Chem. Theory Comput. 5, 3010-3021 (2009).
 Robust Periodic Hartree-Fock Exchange for Large-Scale Simulations Using 
 Gaussian Basis Sets.
 https://doi.org/10.1021/ct900494g

 M. Guidon, F. Schiffmann, J. Hutter, J. VandeVondele.
 J. Chem. Phys. 128, 214104 (2008).
 Ab initio molecular dynamics using hybrid density functionals.
 https://doi.org/10.1063/1.2931945

 L. Genovese, T. Deutsch, S. Goedecker.
 J. Chem. Phys. 127, 054704 (2007).
 Efficient and accurate three-dimensional Poisson solver for surface problems.
 https://doi.org/10.1063/1.2754685

 L. Genovese, T. Deutsch, A. Neelov, S. Goedecker, G. Beylkin.
 J. Chem. Phys. 125, 074105 (2006).
 Efficient solution of Poisson's equation with free boundary conditions.
 https://doi.org/10.1063/1.2335442

 M. Frigo, S. G. Johnson.
 Proc. IEEE 93, 216-231 (2005).
 The design and implementation of FFTW3.
 https://doi.org/10.1109/JPROC.2004.840301

 M. Krack, M. Parrinello.
 Phys. Chem. Chem. Phys. 2, 2105-2112 (2000).
 All-electron ab-initio molecular dynamics.
 https://doi.org/10.1039/b001167n

 G. Lippert, J. Hutter, M. Parrinello.
 Theor. Chem. Acc. 103, 124-140 (1999).
 The Gaussian and augmented-plane-wave density functional method for ab initio 
 molecular dynamics simulations.
 https://doi.org/10.1007/s002140050523

 J. P. Perdew, K. Burke, M. Ernzerhof.
 Phys. Rev. Lett. 77, 3865-3868 (1996).
 Generalized gradient approximation made simple.
 https://doi.org/10.1103/PhysRevLett.77.3865


 -------------------------------------------------------------------------------
 -                                                                             -
 -                                T I M I N G                                  -
 -                                                                             -
 -------------------------------------------------------------------------------
 SUBROUTINE                       CALLS  ASD         SELF TIME        TOTAL TIME
                                MAXIMUM       AVERAGE  MAXIMUM  AVERAGE  MAXIMUM
 CP2K                                 1  1.0    0.022    0.032  188.782  188.782
 run_propagation_bse                  1  2.0    0.002    0.010  188.042  188.044
 qs_energies                          1  3.0    0.001    0.001  186.037  186.059
 scf_env_do_scf                       1  4.0    0.000    0.000  177.865  177.866
 scf_env_do_scf_inner_loop           55  5.0    0.001    0.003  177.865  177.865
 qs_ks_build_kohn_sham_matrix        56  8.0    0.009    0.009  140.776  140.777
 qs_ks_update_qs_env                 55  6.0    0.000    0.000  139.390  139.391
 rebuild_ks_matrix                   55  7.0    0.000    0.000  139.387  139.387
 fft_wrap_pw1pw2                   1167 11.0    0.026    0.033   97.015  101.782
 fft_wrap_pw1pw2_300                831 12.1    4.068    4.228   93.718   98.451
 fft3d_ps                          1167 13.0   38.768   41.715   76.204   81.048
 qs_vxc_create                       56  9.0    0.001    0.001   59.349   59.350
 xc_vxc_pw_create                    55 10.0    0.821    0.855   59.348   59.349
 xc_pw_derive                       330 12.0    0.004    0.005   42.928   47.389
 pw_poisson_solve                    56  9.0    1.299    1.364   46.650   46.674
 xc_pw_divergence                    55 11.0    0.002    0.003   28.855   33.310
 xc_rho_set_and_dset_create          55 11.0    0.633    0.692   29.296   33.018
 ps_wavelet_solve                    56 10.0   22.883   23.280   25.940   25.989
 mp_alltoall_z22v                  1167 15.0   18.897   24.781   18.897   24.781
 yz_to_x                            557 13.8    6.591    7.133   18.358   23.584
 qs_rho_update_rho_low               56  6.0    0.001    0.001   23.195   23.195
 calculate_rho_elec                  56  7.0    0.667    0.676   23.174   23.175
 x_to_yz                            610 14.1   11.932   12.385   19.062   19.326
 density_rs2pw                       56  8.0    0.003    0.004   19.027   19.151
 gspace_mixing                       54  6.0    0.643    0.652   15.405   15.406
 sum_up_and_integrate                56  9.0    0.001    0.001   11.746   11.781
 integrate_v_rspace                  56 10.0    0.001    0.002   11.479   11.537
 potential_pw2rs                     56 11.0    0.033    0.036   11.204   11.262
 xc_functional_eval                 165 11.6    0.001    0.001    6.793   10.370
 pbe_lda_eval                       165 12.6    6.793   10.369    6.793   10.369
 prepare_gapw_den                    56  9.0    0.001    0.001    9.479    9.572
 put_rho0_on_grid                    56 10.0    0.675    0.698    9.289    9.382
 broyden_mixing                      54  7.0    8.541    8.623    8.661    8.674
 qs_energies_properties               1  4.0    0.000    0.000    7.339    7.360
 post_scf_bandstructure               1  5.0    0.000    0.000    7.339    7.360
 gw                                   1  6.0    0.000    0.000    7.318    7.319
 pw_scatter_p                       610 13.1    7.027    7.166    7.027    7.166
 pw_gather_p                        557 12.8    6.225    6.764    6.225    6.764
 transfer_pw2rs                     281 11.6    0.004    0.005    6.178    6.249
 mp_waitany                        6760 12.5    5.603    5.793    5.603    5.793
 pw_derive                          498 12.3    5.428    5.614    5.428    5.614
 transfer_rs2pw                     281  9.4    0.004    0.005    5.294    5.356
 gw_calc_large_cell_Gamma             1  7.0    0.000    0.000    5.164    5.170
 transfer_pw2rs_300                 113 12.0    1.767    1.847    4.854    4.952
 transfer_rs2pw_300                 113 11.0    1.647    1.697    4.162    4.249
 mp_alltoall_d54                     56 11.0    1.277    3.874    1.277    3.874
 -------------------------------------------------------------------------------

 The number of warnings for this run is : 4
 
 -------------------------------------------------------------------------------
  **** **** ******  **  PROGRAM ENDED AT                 2024-12-02 15:56:59.690
 ***** ** ***  *** **   PROGRAM RAN ON                              i01r03c02s10
 **    ****   ******    PROGRAM RAN BY                                   di75qec
 ***** **    ** ** **   PROGRAM PROCESS ID                               2141712
  **** **  *******  **  PROGRAM STOPPED IN /hppfs/scratch/09/di75qec/Ethene_scf.
                                           4142576
