 DBCSR| CPU Multiplication driver                                           XSMM (U)
 DBCSR| Multrec recursion limit                                              512 (U)
 DBCSR| Multiplication stack size                                           1000 (D)
 DBCSR| Maximum elements for images                                    UNLIMITED (U)
 DBCSR| Multiplicative factor virtual images                                   1 (U)
 DBCSR| Use multiplication densification                                       T (D)
 DBCSR| Multiplication size stacks                                             3 (U)
 DBCSR| Use memory pool for CPU allocation                                     F (U)
 DBCSR| Number of 3D layers                                               SINGLE (U)
 DBCSR| Use MPI memory allocation                                              F (U)
 DBCSR| Use RMA algorithm                                                      F (U)
 DBCSR| Use Communication thread                                               T (U)
 DBCSR| Communication thread load                                             79 (D)
 DBCSR| MPI: My process id                                                     0
 DBCSR| MPI: Number of processes                                              16
 DBCSR| OMP: Current number of threads                                         3
 DBCSR| OMP: Max number of threads                                             3
 DBCSR| Split modifier for TAS multiplication algorithm                  1.0E+00 (U)


  **** **** ******  **  PROGRAM STARTED AT               2025-02-21 12:55:07.047
 ***** ** ***  *** **   PROGRAM STARTED ON                          i02r02c05s10
 **    ****   ******    PROGRAM STARTED BY                               di75qec
 ***** **    ** ** **   PROGRAM PROCESS ID                               1824965
  **** **  *******  **  PROGRAM STARTED IN /hppfs/scratch/09/di75qec/Naphthalene
                                           _bse_9.4320075

 CP2K| version string:                 CP2K version 2025.1 (Development Version)
 CP2K| source code revision number:                                  git:d9f5bf2
 CP2K| cp2kflags: omp libint fftw3 libxc parallel scalapack xsmm max_contr=4    
 CP2K| is freely available from                            https://www.cp2k.org/
 CP2K| Program compiled at                       Thu 20 Feb 2025 03:48:46 PM CET
 CP2K| Program compiled on                                               login02
 CP2K| Program compiled for                                        Supermuc-foss
 CP2K| Data directory path               /dss/dsshome1/09/di75qec/CP2K-foss/data
 CP2K| Input file name                                                   bse.inp

 GLOBAL| Force Environment number                                              1
 GLOBAL| Basis set file name                                         aug-cc-pvdz
 GLOBAL| Potential file name                                      ALL_POTENTIALS
 GLOBAL| MM Potential file name                                     MM_POTENTIAL
 GLOBAL| Coordinate file name                                          coord.xyz
 GLOBAL| Method name                                                        CP2K
 GLOBAL| Project name                                                Naphthalene
 GLOBAL| Run type                                                         ENERGY
 GLOBAL| FFT library                                                       FFTW3
 GLOBAL| Diagonalization library                                       ScaLAPACK
 GLOBAL| DGEMM library                                                      BLAS
 GLOBAL| Orthonormality check for eigenvectors                          DISABLED
 GLOBAL| Matrix multiplication library                                 ScaLAPACK
 GLOBAL| All-to-all communication in single precision                          F
 GLOBAL| FFTs using library dependent lengths                                  F
 GLOBAL| Grid backend                                                       AUTO
 GLOBAL| Global print level                                               MEDIUM
 GLOBAL| MPI I/O enabled                                                       T
 GLOBAL| Total number of message passing processes                            16
 GLOBAL| Number of threads for this process                                    3
 GLOBAL| This output is from process                                           0
 GLOBAL| OpenMP stack size per thread (OMP_STACKSIZE)                    default
 GLOBAL| CPU model name             Intel(R) Xeon(R) Platinum 8174 CPU @ 3.10GHz
 GLOBAL| CPUID                                                              1003
 GLOBAL| Compiled for CPUID                                                    0

 *** HINT in environment.F:928 :: The compiler target flags (generic) used ***
 *** to build this binary cannot exploit all extensions of this CPU model  ***
 *** (x86_avx512). Consider compiler target flags as part of FCFLAGS and   ***
 *** CFLAGS (ARCH file).                                                   ***


 MEMORY| system memory details [Kb]
 MEMORY|                        rank 0           min           max       average
 MEMORY| MemTotal             98436664      98436664      98436664      98436664
 MEMORY| MemFree              84059632      84059632      84059632      84059632
 MEMORY| Buffers                     0             0             0             0
 MEMORY| Cached                2415000       2415000       2415000       2415000
 MEMORY| Slab                  1223516       1223516       1223516       1223516
 MEMORY| SReclaimable           273500        273500        273500        273500
 MEMORY| MemLikelyFree        86748132      86748132      86748132      86748132


 *** Fundamental physical constants (SI units) ***

 *** Literature: B. J. Mohr and B. N. Taylor,
 ***             CODATA recommended values of the fundamental physical
 ***             constants: 2006, Web Version 5.1
 ***             http://physics.nist.gov/constants

 Speed of light in vacuum [m/s]                             2.99792458000000E+08
 Magnetic constant or permeability of vacuum [N/A**2]       1.25663706143592E-06
 Electric constant or permittivity of vacuum [F/m]          8.85418781762039E-12
 Planck constant (h) [J*s]                                  6.62606896000000E-34
 Planck constant (h-bar) [J*s]                              1.05457162825177E-34
 Elementary charge [C]                                      1.60217648700000E-19
 Electron mass [kg]                                         9.10938215000000E-31
 Electron g factor [ ]                                     -2.00231930436220E+00
 Proton mass [kg]                                           1.67262163700000E-27
 Fine-structure constant                                    7.29735253760000E-03
 Rydberg constant [1/m]                                     1.09737315685270E+07
 Avogadro constant [1/mol]                                  6.02214179000000E+23
 Boltzmann constant [J/K]                                   1.38065040000000E-23
 Atomic mass unit [kg]                                      1.66053878200000E-27
 Bohr radius [m]                                            5.29177208590000E-11

 *** Conversion factors ***

 [u] -> [a.u.]                                              1.82288848426455E+03
 [Angstrom] -> [Bohr] = [a.u.]                              1.88972613288564E+00
 [a.u.] = [Bohr] -> [Angstrom]                              5.29177208590000E-01
 [a.u.] -> [s]                                              2.41888432650478E-17
 [a.u.] -> [fs]                                             2.41888432650478E-02
 [a.u.] -> [J]                                              4.35974393937059E-18
 [a.u.] -> [N]                                              8.23872205491840E-08
 [a.u.] -> [K]                                              3.15774647902944E+05
 [a.u.] -> [kJ/mol]                                         2.62549961709828E+03
 [a.u.] -> [kcal/mol]                                       6.27509468713739E+02
 [a.u.] -> [Pa]                                             2.94210107994716E+13
 [a.u.] -> [bar]                                            2.94210107994716E+08
 [a.u.] -> [atm]                                            2.90362800883016E+08
 [a.u.] -> [eV]                                             2.72113838565563E+01
 [a.u.] -> [Hz]                                             6.57968392072181E+15
 [a.u.] -> [1/cm] (wave numbers)                            2.19474631370540E+05
 [a.u./Bohr**2] -> [1/cm]                                   5.14048714338585E+03
 

 CELL_TOP| Volume [angstrom^3]:                                      8000.000000
 CELL_TOP| Vector a [angstrom    20.000     0.000     0.000   |a| =    20.000000
 CELL_TOP| Vector b [angstrom     0.000    20.000     0.000   |b| =    20.000000
 CELL_TOP| Vector c [angstrom     0.000     0.000    20.000   |c| =    20.000000
 CELL_TOP| Angle (b,c), alpha [degree]:                                90.000000
 CELL_TOP| Angle (a,c), beta  [degree]:                                90.000000
 CELL_TOP| Angle (a,b), gamma [degree]:                                90.000000
 CELL_TOP| Numerically orthorhombic:                                         YES
 CELL_TOP| Periodicity                                                      NONE

 GENERATE|  Preliminary Number of Bonds generated:                             0
 GENERATE|  Achieved consistency in connectivity generation.

 CELL| Volume [angstrom^3]:                                          8000.000000
 CELL| Vector a [angstrom]:      20.000     0.000     0.000   |a| =    20.000000
 CELL| Vector b [angstrom]:       0.000    20.000     0.000   |b| =    20.000000
 CELL| Vector c [angstrom]:       0.000     0.000    20.000   |c| =    20.000000
 CELL| Angle (b,c), alpha [degree]:                                    90.000000
 CELL| Angle (a,c), beta  [degree]:                                    90.000000
 CELL| Angle (a,b), gamma [degree]:                                    90.000000
 CELL| Numerically orthorhombic:                                             YES
 CELL| Periodicity                                                          NONE

 CELL_REF| Volume [angstrom^3]:                                      8000.000000
 CELL_REF| Vector a [angstrom    20.000     0.000     0.000   |a| =    20.000000
 CELL_REF| Vector b [angstrom     0.000    20.000     0.000   |b| =    20.000000
 CELL_REF| Vector c [angstrom     0.000     0.000    20.000   |c| =    20.000000
 CELL_REF| Angle (b,c), alpha [degree]:                                90.000000
 CELL_REF| Angle (a,c), beta  [degree]:                                90.000000
 CELL_REF| Angle (a,b), gamma [degree]:                                90.000000
 CELL_REF| Numerically orthorhombic:                                         YES
 CELL_REF| Periodicity                                                      NONE

 *******************************************************************************
 *******************************************************************************
 **                                                                           **
 **     #####                         ##              ##                      **
 **    ##   ##            ##          ##              ##                      **
 **   ##     ##                       ##            ######                    **
 **   ##     ##  ##   ##  ##   #####  ##  ##   ####   ##    #####    #####    **
 **   ##     ##  ##   ##  ##  ##      ## ##   ##      ##   ##   ##  ##   ##   **
 **   ##  ## ##  ##   ##  ##  ##      ####     ###    ##   ######   ######    **
 **    ##  ###   ##   ##  ##  ##      ## ##      ##   ##   ##       ##        **
 **     #######   #####   ##   #####  ##  ##  ####    ##    #####   ##        **
 **           ##                                                    ##        **
 **                                                                           **
 **                                                ... make the atoms dance   **
 **                                                                           **
 **            Copyright (C) by CP2K developers group (2000-2025)             **
 **                      J. Chem. Phys. 152, 194103 (2020)                    **
 **                                                                           **
 *******************************************************************************

 DFT| Spin restricted Kohn-Sham (RKS) calculation                            RKS
 DFT| Multiplicity                                                             1
 DFT| Number of spin states                                                    1
 DFT| Charge                                                                   0
 DFT| Self-interaction correction (SIC)                                       NO
 DFT| Cutoffs: density                                              1.000000E-10
 DFT|          gradient                                             1.000000E-10
 DFT|          tau                                                  1.000000E-10
 DFT|          cutoff_smoothing_range                               0.000000E+00
 DFT| XC density smoothing                                                  NONE
 DFT| XC derivatives                                                          PW

 FUNCTIONAL| PBE:
 FUNCTIONAL| J.P.Perdew, K.Burke, M.Ernzerhof, Phys. Rev. Letter, vol. 77, n 18,
 FUNCTIONAL|  pp. 3865-3868, (1996)sx=0.750sc=1.000{spin unpolarized}           


 QS| Method:                                                                GAPW
 QS| Density plane wave grid type                        NON-SPHERICAL FULLSPACE
 QS| Number of grid levels:                                                    4
 QS| Density cutoff [a.u.]:                                                300.0
 QS| Multi grid cutoff [a.u.]: 1) grid level                               300.0
 QS|                           2) grid level                               100.0
 QS|                           3) grid level                                33.3
 QS|                           4) grid level                                11.1
 QS| Grid level progression factor:                                          3.0
 QS| Relative density cutoff [a.u.]:                                        30.0
 QS| Interaction thresholds: eps_pgf_orb:                                1.0E-05
 QS|                         eps_filter_matrix:                          0.0E+00
 QS|                         eps_core_charge:                            1.0E-12
 QS|                         eps_rho_gspace:                             1.0E-10
 QS|                         eps_rho_rspace:                             1.0E-10
 QS|                         eps_gvg_rspace:                             1.0E-05
 QS|                         eps_ppl:                                    1.0E-02
 QS|                         eps_ppnl:                                   1.0E-07
 QS| GAPW|      One center basis from orbital basis primitives
 QS| GAPW|                   eps_fit:                                    1.0E-04
 QS| GAPW|                   eps_iso:                                    1.0E-12
 QS| GAPW|                   eps_svd:                                    1.0E-08
 QS| GAPW|                   eps_cpc:                                    1.0E-10
 QS| GAPW|   atom-r-grid: quadrature:                                     GC_LOG
 QS| GAPW|      atom-s-grid:  max l :                                          4
 QS| GAPW|      max_l_rho0 :                                                   2


 ATOMIC KIND INFORMATION

  1. Atomic kind: H                                     Number of atoms:       8

     Orbital Basis Set                                               aug-cc-pvdz

       Number of orbital shell sets:                                           4
       Number of orbital shells:                                               5
       Number of primitive Cartesian functions:                                7
       Number of Cartesian basis functions:                                    9
       Number of spherical basis functions:                                    9
       Norm type:                                                              2

       Normalised Cartesian orbitals:

                        Set   Shell   Orbital            Exponent    Coefficient

                          1       1    1s               13.010000       0.096107
                                                         1.962000       0.163020
                                                         0.444600       0.185545
                                                         0.122000       0.073744

                          1       2    2s               13.010000       0.000000
                                                         1.962000       0.000000
                                                         0.444600       0.000000
                                                         0.122000       0.147123

                          2       1    1s                0.029740       0.051041

                          3       1    1px               0.727000       0.956881
                          3       1    1py               0.727000       0.956881
                          3       1    1pz               0.727000       0.956881

                          4       1    1px               0.141000       0.123158
                          4       1    1py               0.141000       0.123158
                          4       1    1pz               0.141000       0.123158

     RI Auxiliary Basis Set                                    aug-cc-pvtz-rifit

       Number of orbital shell sets:                                          14
       Number of orbital shells:                                              14
       Number of primitive Cartesian functions:                               14
       Number of Cartesian basis functions:                                   55
       Number of spherical basis functions:                                   46
       Norm type:                                                              2

       Normalised Cartesian orbitals:

                        Set   Shell   Orbital            Exponent    Coefficient

                          1       1    1s                8.512828       3.551939

                          2       1    1s                1.873089       1.141114

                          3       1    1s                0.526184       0.440315

                          4       1    1s                0.289740       0.281460

                          5       1    1s                0.127194       0.151796

                          6       1    1px               2.372549       4.197195
                          6       1    1py               2.372549       4.197195
                          6       1    1pz               2.372549       4.197195

                          7       1    1px               1.180408       1.753802
                          7       1    1py               1.180408       1.753802
                          7       1    1pz               1.180408       1.753802

                          8       1    1px               0.603822       0.758711
                          8       1    1py               0.603822       0.758711
                          8       1    1pz               0.603822       0.758711

                          9       1    1px               0.235513       0.233861
                          9       1    1py               0.235513       0.233861
                          9       1    1pz               0.235513       0.233861

                         10       1    1dx2              1.809637       4.647235
                         10       1    1dxy              1.809637       8.049248
                         10       1    1dxz              1.809637       8.049248
                         10       1    1dy2              1.809637       4.647235
                         10       1    1dyz              1.809637       8.049248
                         10       1    1dz2              1.809637       4.647235

                         11       1    1dx2              1.143973       2.082748
                         11       1    1dxy              1.143973       3.607426
                         11       1    1dxz              1.143973       3.607426
                         11       1    1dy2              1.143973       2.082748
                         11       1    1dyz              1.143973       3.607426
                         11       1    1dz2              1.143973       2.082748

                         12       1    1dx2              0.436654       0.386056
                         12       1    1dxy              0.436654       0.668668
                         12       1    1dxz              0.436654       0.668668
                         12       1    1dy2              0.436654       0.386056
                         12       1    1dyz              0.436654       0.668668
                         12       1    1dz2              0.436654       0.386056

                         13       1    1fx3              1.806306       5.568458
                         13       1    1fx2y             1.806306      12.451451
                         13       1    1fx2z             1.806306      12.451451
                         13       1    1fxy2             1.806306      12.451451
                         13       1    1fxyz             1.806306      21.566546
                         13       1    1fxz2             1.806306      12.451451
                         13       1    1fy3              1.806306       5.568458
                         13       1    1fy2z             1.806306      12.451451
                         13       1    1fyz2             1.806306      12.451451
                         13       1    1fz3              1.806306       5.568458

                         14       1    1fx3              0.252978       0.066817
                         14       1    1fx2y             0.252978       0.149408
                         14       1    1fx2z             0.252978       0.149408
                         14       1    1fxy2             0.252978       0.149408
                         14       1    1fxyz             0.252978       0.258783
                         14       1    1fxz2             0.252978       0.149408
                         14       1    1fy3              0.252978       0.066817
                         14       1    1fy2z             0.252978       0.149408
                         14       1    1fyz2             0.252978       0.149408
                         14       1    1fz3              0.252978       0.066817

       Atomic covalent radius [Angstrom]:                                  0.320

       Atomic van der Waals radius [Angstrom]:                             1.090

     The atoms of this atomic kind are PAW atoms (GAPW):
       Hard Gaussian function radius:                                      1.200
       Rho0 radius:                                                        1.200
       Maximum GTO radius used for PAW projector construction:            24.566

     GAPW Soft Basis Set                                        aug-cc-pvdz_soft

       Number of orbital shell sets:                                           4
       Number of orbital shells:                                               5
       Number of primitive Cartesian functions:                                6
       Number of Cartesian basis functions:                                    9
       Number of spherical basis functions:                                    9
       Norm type:                                                              2

       Normalised Cartesian orbitals:

                        Set   Shell   Orbital            Exponent    Coefficient

                          1       1    1s                1.962000       0.163020
                                                         0.444600       0.185545
                                                         0.122000       0.073744

                          1       2    2s                1.962000       0.000000
                                                         0.444600       0.000000
                                                         0.122000       0.147123

                          2       1    1s                0.029740       0.051041

                          3       1    1px               0.727000       0.956881
                          3       1    1py               0.727000       0.956881
                          3       1    1pz               0.727000       0.956881

                          4       1    1px               0.141000       0.123158
                          4       1    1py               0.141000       0.123158
                          4       1    1pz               0.141000       0.123158

     AE Potential information for                                            ALL

       Description:                                       All-electron potential
                                          Krack, Parrinello, PCCP 2, 2105 (2000)

       Gaussian exponent of the core charge distribution:              12.500000
       Electronic configuration (s p d ...):                           1   0   0

  2. Atomic kind: C                                     Number of atoms:      10

     Orbital Basis Set                                               aug-cc-pvdz

       Number of orbital shell sets:                                           6
       Number of orbital shells:                                               9
       Number of primitive Cartesian functions:                               17
       Number of Cartesian basis functions:                                   25
       Number of spherical basis functions:                                   23
       Norm type:                                                              2

       Normalised Cartesian orbitals:

                        Set   Shell   Orbital            Exponent    Coefficient

                          1       1    1s             6665.000000       0.363803
                                                      1000.000000       0.675392
                                                       228.000000       1.132301
                                                        64.710000       1.654004
                                                        21.060000       1.924978
                                                         7.495000       1.448149
                                                         2.797000       0.439427
                                                         0.521500       0.006650
                                                         0.159600      -0.000574

                          1       2    2s             6665.000000      -0.076756
                                                      1000.000000      -0.146257
                                                       228.000000      -0.239407
                                                        64.710000      -0.379069
                                                        21.060000      -0.448104
                                                         7.495000      -0.484201
                                                         2.797000      -0.196168
                                                         0.521500       0.238162
                                                         0.159600       0.104468

                          1       3    3s             6665.000000       0.000000
                                                      1000.000000       0.000000
                                                       228.000000       0.000000
                                                        64.710000       0.000000
                                                        21.060000       0.000000
                                                         7.495000       0.000000
                                                         2.797000       0.000000
                                                         0.521500       0.000000
                                                         0.159600       0.179964

                          2       1    1s                0.046900       0.071827

                          3       1    1px               9.439000       0.898722
                                                         2.002000       0.711071
                                                         0.545600       0.339917
                                                         0.151700       0.063270
                          3       1    1py               9.439000       0.898722
                                                         2.002000       0.711071
                                                         0.545600       0.339917
                                                         0.151700       0.063270
                          3       1    1pz               9.439000       0.898722
                                                         2.002000       0.711071
                                                         0.545600       0.339917
                                                         0.151700       0.063270

                          3       2    2px               9.439000       0.000000
                                                         2.002000       0.000000
                                                         0.545600       0.000000
                                                         0.151700       0.134950
                          3       2    2py               9.439000       0.000000
                                                         2.002000       0.000000
                                                         0.545600       0.000000
                                                         0.151700       0.134950
                          3       2    2pz               9.439000       0.000000
                                                         2.002000       0.000000
                                                         0.545600       0.000000
                                                         0.151700       0.134950

                          4       1    1px               0.040410       0.025826
                          4       1    1py               0.040410       0.025826
                          4       1    1pz               0.040410       0.025826

                          5       1    1dx2              0.550000       0.578155
                          5       1    1dxy              0.550000       1.001394
                          5       1    1dxz              0.550000       1.001394
                          5       1    1dy2              0.550000       0.578155
                          5       1    1dyz              0.550000       1.001394
                          5       1    1dz2              0.550000       0.578155

                          6       1    1dx2              0.151000       0.060203
                          6       1    1dxy              0.151000       0.104275
                          6       1    1dxz              0.151000       0.104275
                          6       1    1dy2              0.151000       0.060203
                          6       1    1dyz              0.151000       0.104275
                          6       1    1dz2              0.151000       0.060203

     RI Auxiliary Basis Set                                    aug-cc-pvtz-rifit

       Number of orbital shell sets:                                          28
       Number of orbital shells:                                              28
       Number of primitive Cartesian functions:                               28
       Number of Cartesian basis functions:                                  136
       Number of spherical basis functions:                                  106
       Norm type:                                                              2

       Normalised Cartesian orbitals:

                        Set   Shell   Orbital            Exponent    Coefficient

                          1       1    1s              280.556612      48.856851

                          2       1    1s               60.230247      15.408880

                          3       1    1s               22.116651       7.268581

                          4       1    1s                6.862093       3.021708

                          5       1    1s                1.562255       0.995919

                          6       1    1s                0.912450       0.665376

                          7       1    1s                0.502749       0.425524

                          8       1    1s                0.215823       0.225675

                          9       1    1s                0.101536       0.128196

                         10       1    1px              24.231865      76.634379
                         10       1    1py              24.231865      76.634379
                         10       1    1pz              24.231865      76.634379

                         11       1    1px               6.476451      14.726905
                         11       1    1py               6.476451      14.726905
                         11       1    1pz               6.476451      14.726905

                         12       1    1px               2.129088       3.665914
                         12       1    1py               2.129088       3.665914
                         12       1    1pz               2.129088       3.665914

                         13       1    1px               1.037564       1.492652
                         13       1    1py               1.037564       1.492652
                         13       1    1pz               1.037564       1.492652

                         14       1    1px               0.549413       0.674238
                         14       1    1py               0.549413       0.674238
                         14       1    1pz               0.549413       0.674238

                         15       1    1px               0.281527       0.292307
                         15       1    1py               0.281527       0.292307
                         15       1    1pz               0.281527       0.292307

                         16       1    1px               0.115060       0.095520
                         16       1    1py               0.115060       0.095520
                         16       1    1pz               0.115060       0.095520

                         17       1    1dx2              9.718981      88.053322
                         17       1    1dxy              9.718981     152.512828
                         17       1    1dxz              9.718981     152.512828
                         17       1    1dy2              9.718981      88.053322
                         17       1    1dyz              9.718981     152.512828
                         17       1    1dz2              9.718981      88.053322

                         18       1    1dx2              3.035148      11.487463
                         18       1    1dxy              3.035148      19.896869
                         18       1    1dxz              3.035148      19.896869
                         18       1    1dy2              3.035148      11.487463
                         18       1    1dyz              3.035148      19.896869
                         18       1    1dz2              3.035148      11.487463

                         19       1    1dx2              1.467774       3.221535
                         19       1    1dxy              1.467774       5.579863
                         19       1    1dxz              1.467774       5.579863
                         19       1    1dy2              1.467774       3.221535
                         19       1    1dyz              1.467774       5.579863
                         19       1    1dz2              1.467774       3.221535

                         20       1    1dx2              0.573708       0.622471
                         20       1    1dxy              0.573708       1.078151
                         20       1    1dxz              0.573708       1.078151
                         20       1    1dy2              0.573708       0.622471
                         20       1    1dyz              0.573708       1.078151
                         20       1    1dz2              0.573708       0.622471

                         21       1    1dx2              0.290556       0.189261
                         21       1    1dxy              0.290556       0.327810
                         21       1    1dxz              0.290556       0.327810
                         21       1    1dy2              0.290556       0.189261
                         21       1    1dyz              0.290556       0.327810
                         21       1    1dz2              0.290556       0.189261

                         22       1    1dx2              0.148905       0.058749
                         22       1    1dxy              0.148905       0.101756
                         22       1    1dxz              0.148905       0.101756
                         22       1    1dy2              0.148905       0.058749
                         22       1    1dyz              0.148905       0.101756
                         22       1    1dz2              0.148905       0.058749

                         23       1    1fx3              2.275620       9.363300
                         23       1    1fx2y             2.275620      20.936975
                         23       1    1fx2z             2.275620      20.936975
                         23       1    1fxy2             2.275620      20.936975
                         23       1    1fxyz             2.275620      36.263904
                         23       1    1fxz2             2.275620      20.936975
                         23       1    1fy3              2.275620       9.363300
                         23       1    1fy2z             2.275620      20.936975
                         23       1    1fyz2             2.275620      20.936975
                         23       1    1fz3              2.275620       9.363300

                         24       1    1fx3              1.196890       2.205852
                         24       1    1fx2y             1.196890       4.932435
                         24       1    1fx2z             1.196890       4.932435
                         24       1    1fxy2             1.196890       4.932435
                         24       1    1fxyz             1.196890       8.543228
                         24       1    1fxz2             1.196890       4.932435
                         24       1    1fy3              1.196890       2.205852
                         24       1    1fy2z             1.196890       4.932435
                         24       1    1fyz2             1.196890       4.932435
                         24       1    1fz3              1.196890       2.205852

                         25       1    1fx3              0.541575       0.370413
                         25       1    1fx2y             0.541575       0.828268
                         25       1    1fx2z             0.541575       0.828268
                         25       1    1fxy2             0.541575       0.828268
                         25       1    1fxyz             0.541575       1.434603
                         25       1    1fxz2             0.541575       0.828268
                         25       1    1fy3              0.541575       0.370413
                         25       1    1fy2z             0.541575       0.828268
                         25       1    1fyz2             0.541575       0.828268
                         25       1    1fz3              0.541575       0.370413

                         26       1    1fx3              0.201793       0.040178
                         26       1    1fx2y             0.201793       0.089842
                         26       1    1fx2z             0.201793       0.089842
                         26       1    1fxy2             0.201793       0.089842
                         26       1    1fxyz             0.201793       0.155610
                         26       1    1fxz2             0.201793       0.089842
                         26       1    1fy3              0.201793       0.040178
                         26       1    1fy2z             0.201793       0.089842
                         26       1    1fyz2             0.201793       0.089842
                         26       1    1fz3              0.201793       0.040178

                         27       1    1gx4              1.216610       1.908103
                         27       1    1gx3y             1.216610       5.048367
                         27       1    1gx3z             1.216610       5.048367
                         27       1    1gx2y2            1.216610       6.517414
                         27       1    1gx2yz            1.216610      11.288491
                         27       1    1gx2z2            1.216610       6.517414
                         27       1    1gxy3             1.216610       5.048367
                         27       1    1gxy2z            1.216610      11.288491
                         27       1    1gxyz2            1.216610      11.288491
                         27       1    1gxz3             1.216610       5.048367
                         27       1    1gy4              1.216610       1.908103
                         27       1    1gy3z             1.216610       5.048367
                         27       1    1gy2z2            1.216610       6.517414
                         27       1    1gyz3             1.216610       5.048367
                         27       1    1gz4              1.216610       1.908103

                         28       1    1gx4              0.435998       0.113505
                         28       1    1gx3y             0.435998       0.300307
                         28       1    1gx3z             0.435998       0.300307
                         28       1    1gx2y2            0.435998       0.387695
                         28       1    1gx2yz            0.435998       0.671507
                         28       1    1gx2z2            0.435998       0.387695
                         28       1    1gxy3             0.435998       0.300307
                         28       1    1gxy2z            0.435998       0.671507
                         28       1    1gxyz2            0.435998       0.671507
                         28       1    1gxz3             0.435998       0.300307
                         28       1    1gy4              0.435998       0.113505
                         28       1    1gy3z             0.435998       0.300307
                         28       1    1gy2z2            0.435998       0.387695
                         28       1    1gyz3             0.435998       0.300307
                         28       1    1gz4              0.435998       0.113505

       Atomic covalent radius [Angstrom]:                                  0.770

       Atomic van der Waals radius [Angstrom]:                             1.700

     The atoms of this atomic kind are PAW atoms (GAPW):
       Hard Gaussian function radius:                                      1.512
       Rho0 radius:                                                        1.512
       Maximum GTO radius used for PAW projector construction:            24.566

     GAPW Soft Basis Set                                        aug-cc-pvdz_soft

       Number of orbital shell sets:                                           6
       Number of orbital shells:                                               9
       Number of primitive Cartesian functions:                               10
       Number of Cartesian basis functions:                                   25
       Number of spherical basis functions:                                   23
       Norm type:                                                              2

       Normalised Cartesian orbitals:

                        Set   Shell   Orbital            Exponent    Coefficient

                          1       1    1s                2.797000       0.439427
                                                         0.521500       0.006650
                                                         0.159600      -0.000574

                          1       2    2s                2.797000      -0.196168
                                                         0.521500       0.238162
                                                         0.159600       0.104468

                          1       3    3s                2.797000       0.000000
                                                         0.521500       0.000000
                                                         0.159600       0.179964

                          2       1    1s                0.046900       0.071827

                          3       1    1px               2.002000       0.711071
                                                         0.545600       0.339917
                                                         0.151700       0.063270
                          3       1    1py               2.002000       0.711071
                                                         0.545600       0.339917
                                                         0.151700       0.063270
                          3       1    1pz               2.002000       0.711071
                                                         0.545600       0.339917
                                                         0.151700       0.063270

                          3       2    2px               2.002000       0.000000
                                                         0.545600       0.000000
                                                         0.151700       0.134950
                          3       2    2py               2.002000       0.000000
                                                         0.545600       0.000000
                                                         0.151700       0.134950
                          3       2    2pz               2.002000       0.000000
                                                         0.545600       0.000000
                                                         0.151700       0.134950

                          4       1    1px               0.040410       0.025826
                          4       1    1py               0.040410       0.025826
                          4       1    1pz               0.040410       0.025826

                          5       1    1dx2              0.550000       0.578155
                          5       1    1dxy              0.550000       1.001394
                          5       1    1dxz              0.550000       1.001394
                          5       1    1dy2              0.550000       0.578155
                          5       1    1dyz              0.550000       1.001394
                          5       1    1dz2              0.550000       0.578155

                          6       1    1dx2              0.151000       0.060203
                          6       1    1dxy              0.151000       0.104275
                          6       1    1dxz              0.151000       0.104275
                          6       1    1dy2              0.151000       0.060203
                          6       1    1dyz              0.151000       0.104275
                          6       1    1dz2              0.151000       0.060203

     AE Potential information for                                            ALL

       Description:                                       All-electron potential
                                          Krack, Parrinello, PCCP 2, 2105 (2000)

       Gaussian exponent of the core charge distribution:               4.109048
       Electronic configuration (s p d ...):                           4   2   0


 MOLECULE KIND INFORMATION


 All atoms are their own molecule, skipping detailed information


 TOTAL NUMBERS AND MAXIMUM NUMBERS

  Total number of            - Atomic kinds:                                   2
                             - Atoms:                                         18
                             - Shell sets:                                    92
                             - Shells:                                       130
                             - Primitive Cartesian functions:                226
                             - Cartesian basis functions:                    322
                             - Spherical basis functions:                    302

  Maximum angular momentum of the orbital basis functions:                     2


 MODULE QUICKSTEP: ATOMIC COORDINATES IN ANGSTROM

   Atom Kind Element         X             Y             Z       Z(eff)     Mass
      1    1 H     1     11.240557     12.492735     10.000000   1.0000   1.0079
      2    1 H     1      8.759443      7.507265     10.000000   1.0000   1.0079
      3    1 H     1      8.759443     12.492735     10.000000   1.0000   1.0079
      4    1 H     1     11.240557      7.507265     10.000000   1.0000   1.0079
      5    1 H     1     13.377213     11.246082     10.000000   1.0000   1.0079
      6    1 H     1      6.622787      8.753918     10.000000   1.0000   1.0079
      7    1 H     1      6.622787     11.246082     10.000000   1.0000   1.0079
      8    1 H     1     13.377213      8.753918     10.000000   1.0000   1.0079
      9    2 C     6     10.000000     10.716253     10.000000   6.0000  12.0107
     10    2 C     6     10.000000      9.283747     10.000000   6.0000  12.0107
     11    2 C     6     11.241539     11.403577     10.000000   6.0000  12.0107
     12    2 C     6      8.758461      8.596423     10.000000   6.0000  12.0107
     13    2 C     6      8.758461     11.403577     10.000000   6.0000  12.0107
     14    2 C     6     11.241539      8.596423     10.000000   6.0000  12.0107
     15    2 C     6     12.432418     10.707325     10.000000   6.0000  12.0107
     16    2 C     6      7.567582      9.292675     10.000000   6.0000  12.0107
     17    2 C     6      7.567582     10.707325     10.000000   6.0000  12.0107
     18    2 C     6     12.432418      9.292675     10.000000   6.0000  12.0107



 SCF PARAMETERS         Density guess:                                   RESTART
                        --------------------------------------------------------
                        max_scf:                                             200
                        max_scf_history:                                       0
                        max_diis:                                              4
                        --------------------------------------------------------
                        eps_scf:                                        1.00E-07
                        eps_scf_history:                                0.00E+00
                        eps_diis:                                       1.00E-01
                        eps_eigval:                                     1.00E-05
                        --------------------------------------------------------
                        level_shift [a.u.]:                             0.000000
                        added MOs                                       268    0
                        --------------------------------------------------------
                        Mixing method:                            BROYDEN_MIXING
                                                charge density mixing in g-space
                        --------------------------------------------------------
                        No outer SCF

 PW_GRID| Information for grid number                                          1
 PW_GRID| Grid distributed over                                    16 processors
 PW_GRID| Real space group dimensions                                    16    1
 PW_GRID| the grid is blocked:                                                NO
 PW_GRID| Cutoff [a.u.]                                                    300.0
 PW_GRID| spherical cutoff:                                                   NO
 PW_GRID|   Bounds   1           -150     149                Points:         300
 PW_GRID|   Bounds   2           -150     149                Points:         300
 PW_GRID|   Bounds   3           -150     149                Points:         300
 PW_GRID| Volume element (a.u.^3)  0.2000E-02     Volume (a.u.^3)     53986.6767
 PW_GRID| Grid span                                                    FULLSPACE
 PW_GRID|   Distribution                         Average         Max         Min
 PW_GRID|   G-Vectors                          1687500.0     1687500     1687500
 PW_GRID|   G-Rays                                5625.0        5625        5625
 PW_GRID|   Real Space Points                  1687500.0     1710000     1620000

 PW_GRID| Information for grid number                                          2
 PW_GRID| Number of the reference grid                                         1
 PW_GRID| Grid distributed over                                    16 processors
 PW_GRID| Real space group dimensions                                    16    1
 PW_GRID| the grid is blocked:                                                NO
 PW_GRID| Cutoff [a.u.]                                                    100.0
 PW_GRID| spherical cutoff:                                                   NO
 PW_GRID|   Bounds   1            -90      89                Points:         180
 PW_GRID|   Bounds   2            -90      89                Points:         180
 PW_GRID|   Bounds   3            -90      89                Points:         180
 PW_GRID| Volume element (a.u.^3)  0.9257E-02     Volume (a.u.^3)     53986.6767
 PW_GRID| Grid span                                                    FULLSPACE
 PW_GRID|   Distribution                         Average         Max         Min
 PW_GRID|   G-Vectors                           364500.0      364680      364320
 PW_GRID|   G-Rays                                2025.0        2026        2024
 PW_GRID|   Real Space Points                   364500.0      388800      356400

 PW_GRID| Information for grid number                                          3
 PW_GRID| Number of the reference grid                                         1
 PW_GRID| Grid distributed over                                    16 processors
 PW_GRID| Real space group dimensions                                    16    1
 PW_GRID| the grid is blocked:                                                NO
 PW_GRID| Cutoff [a.u.]                                                     33.3
 PW_GRID| spherical cutoff:                                                   NO
 PW_GRID|   Bounds   1            -50      49                Points:         100
 PW_GRID|   Bounds   2            -50      49                Points:         100
 PW_GRID|   Bounds   3            -50      49                Points:         100
 PW_GRID| Volume element (a.u.^3)  0.5399E-01     Volume (a.u.^3)     53986.6767
 PW_GRID| Grid span                                                    FULLSPACE
 PW_GRID|   Distribution                         Average         Max         Min
 PW_GRID|   G-Vectors                            62500.0       62600       62400
 PW_GRID|   G-Rays                                 625.0         626         624
 PW_GRID|   Real Space Points                    62500.0       70000       60000

 PW_GRID| Information for grid number                                          4
 PW_GRID| Number of the reference grid                                         1
 PW_GRID| Grid distributed over                                    16 processors
 PW_GRID| Real space group dimensions                                    16    1
 PW_GRID| the grid is blocked:                                                NO
 PW_GRID| Cutoff [a.u.]                                                     11.1
 PW_GRID| spherical cutoff:                                                   NO
 PW_GRID|   Bounds   1            -30      29                Points:          60
 PW_GRID|   Bounds   2            -30      29                Points:          60
 PW_GRID|   Bounds   3            -30      29                Points:          60
 PW_GRID| Volume element (a.u.^3)  0.2499         Volume (a.u.^3)     53986.6767
 PW_GRID| Grid span                                                    FULLSPACE
 PW_GRID|   Distribution                         Average         Max         Min
 PW_GRID|   G-Vectors                            13500.0       13560       13440
 PW_GRID|   G-Rays                                 225.0         226         224
 PW_GRID|   Real Space Points                    13500.0       14400       10800

 POISSON| Solver                                                         WAVELET
 POISSON| Wavelet| Scaling function                                           40
 POISSON| Periodicity                                                       NONE

 RS_GRID| Information for grid number                                          1
 RS_GRID|   Bounds   1           -150     149                Points:         300
 RS_GRID|   Bounds   2           -150     149                Points:         300
 RS_GRID|   Bounds   3           -150     149                Points:         300
 RS_GRID| Real space distribution over                                  4 groups
 RS_GRID| Real space distribution along direction                              2
 RS_GRID| Border size                                                         24
 RS_GRID| Real space distribution over                                  4 groups
 RS_GRID| Real space distribution along direction                              3
 RS_GRID| Border size                                                         24
 RS_GRID|   Distribution                         Average         Max         Min
 RS_GRID|   Planes                                 123.0         123         123
 RS_GRID|   Distribution                         Average         Max         Min
 RS_GRID|   Planes                                 123.0         123         123

 RS_GRID| Information for grid number                                          2
 RS_GRID|   Bounds   1            -90      89                Points:         180
 RS_GRID|   Bounds   2            -90      89                Points:         180
 RS_GRID|   Bounds   3            -90      89                Points:         180
 RS_GRID| Real space distribution over                                  4 groups
 RS_GRID| Real space distribution along direction                              2
 RS_GRID| Border size                                                         25
 RS_GRID| Real space distribution over                                  4 groups
 RS_GRID| Real space distribution along direction                              3
 RS_GRID| Border size                                                         25
 RS_GRID|   Distribution                         Average         Max         Min
 RS_GRID|   Planes                                  95.0          95          95
 RS_GRID|   Distribution                         Average         Max         Min
 RS_GRID|   Planes                                  95.0          95          95

 RS_GRID| Information for grid number                                          3
 RS_GRID|   Bounds   1            -50      49                Points:         100
 RS_GRID|   Bounds   2            -50      49                Points:         100
 RS_GRID|   Bounds   3            -50      49                Points:         100
 RS_GRID| Real space fully replicated
 RS_GRID| Group size                                                           1

 RS_GRID| Information for grid number                                          4
 RS_GRID|   Bounds   1            -30      29                Points:          60
 RS_GRID|   Bounds   2            -30      29                Points:          60
 RS_GRID|   Bounds   3            -30      29                Points:          60
 RS_GRID| Real space fully replicated
 RS_GRID| Group size                                                           1

  HFX_INFO| Replica ID:                                                        1
  HFX_INFO| FRACTION:                                               0.2500000000
  HFX_INFO| Interaction Potential:                                       COULOMB
  HFX_INFO| EPS_SCHWARZ:                                                 1.0E-10
  HFX_INFO| EPS_SCHWARZ_FORCES                                           1.0E-08
  HFX_INFO| EPS_STORAGE_SCALING:                                         1.0E+00
  HFX_INFO| NBINS:                                                            64
  HFX_INFO| BLOCK_SIZE:                                                        1
  HFX_INFO| Number of periodic shells considered:                           NONE
  HFX_INFO| Number of periodic cells considered:                            NONE

 
 RI-RPA| using GPW style
 

 Number of electrons:                                                         68
 Number of occupied orbitals:                                                 34
 Number of molecular orbitals:                                               302

 Number of orbital functions:                                                302
 Number of independent orbital functions:                                    302

 Extrapolation method: initial_guess


 SCF WAVEFUNCTION OPTIMIZATION

  Step     Update method      Time    Convergence         Total energy    Change
  ------------------------------------------------------------------------------

  HFX_MEM_INFO| Est. max. program size before HFX [MiB]:                    1243
  HFX_MEM_INFO| Number of cart. primitive ERI's calculated:           4671875876
  HFX_MEM_INFO| Number of sph. ERI's calculated:                      1175418788
  HFX_MEM_INFO| Number of sph. ERI's stored in-core:                  1175418788
  HFX_MEM_INFO| Number of sph. ERI's stored on disk:                           0
  HFX_MEM_INFO| Number of sph. ERI's calculated on the fly:                    0
  HFX_MEM_INFO| Total memory consumption ERI's RAM [MiB]:                   3478
  HFX_MEM_INFO| Whereof max-vals [MiB]:                                        1
  HFX_MEM_INFO| Total compression factor ERI's RAM:                         2.58
  HFX_MEM_INFO| Total memory consumption ERI's disk [MiB]:                     0
  HFX_MEM_INFO| Total compression factor ERI's disk:                        0.00
  HFX_MEM_INFO| Size of density/Fock matrix [MiB]:                             0
  HFX_MEM_INFO| Size of buffers [MiB]:                                         0
  HFX_MEM_INFO| Est. max. program size after HFX  [MiB]:                    1656

     1 NoMix/Diag. 0.40E+00   13.4     0.00000004      -385.4728748582 -3.85E+02

  *** SCF run converged in     1 steps ***


  Electronic density on regular grids:        -49.3657267920       18.6342732080
  Core density on regular grids:               68.0000000000       -0.0000000000
  Hard and soft densities (Lebedev):         -638.6421834922     -620.0079096067
  Total Rho_soft + Rho1_hard - Rho1_soft      -68.0000006775
  Total charge density (r-space):              -0.0000006775
  Total Rho_soft + Rho0_soft (g-space):        -0.0000007753

  Overlap energy of the core charge distribution:               0.00001937594609
  Self energy of the core charge distribution:               -302.41125786146722
  Core Hamiltonian energy:                                    -69.43639937454472
  Hartree energy:                                             123.46932037196549
  Exchange-correlation energy:                                -16.34104820618056
  Hartree-Fock Exchange energy:                               -13.66711064236713

  GAPW| Exc from hard and soft atomic rho1:                   -26.77840040134262
  GAPW| local Eh = 1 center integrals:                        -80.30799812016315

  Total energy:                                              -385.47287485815383

 !-----------------------------------------------------------------------------!
                     Mulliken Population Analysis

 #  Atom  Element  Kind  Atomic population                           Net charge
       1     H        1          1.780768                             -0.780768
       2     H        1          1.780768                             -0.780768
       3     H        1          1.780768                             -0.780768
       4     H        1          1.780768                             -0.780768
       5     H        1          1.632416                             -0.632416
       6     H        1          1.632416                             -0.632416
       7     H        1          1.632416                             -0.632416
       8     H        1          1.632416                             -0.632416
       9     C        2          4.240294                              1.759706
      10     C        2          4.240294                              1.759706
      11     C        2          5.536528                              0.463472
      12     C        2          5.536529                              0.463471
      13     C        2          5.536529                              0.463471
      14     C        2          5.536528                              0.463472
      15     C        2          5.930140                              0.069860
      16     C        2          5.930140                              0.069860
      17     C        2          5.930140                              0.069860
      18     C        2          5.930140                              0.069860
 # Total charge                             68.000000                 -0.000000

 !-----------------------------------------------------------------------------!

 !-----------------------------------------------------------------------------!
                           Hirshfeld Charges

  #Atom  Element  Kind  Ref Charge     Population                    Net charge
      1       H      1       1.000          0.509                         0.491
      2       H      1       1.000          0.509                         0.491
      3       H      1       1.000          0.509                         0.491
      4       H      1       1.000          0.509                         0.491
      5       H      1       1.000          0.509                         0.491
      6       H      1       1.000          0.509                         0.491
      7       H      1       1.000          0.509                         0.491
      8       H      1       1.000          0.509                         0.491
      9       C      2       6.000          5.994                         0.006
     10       C      2       6.000          5.994                         0.006
     11       C      2       6.000          6.487                        -0.487
     12       C      2       6.000          6.487                        -0.487
     13       C      2       6.000          6.487                        -0.487
     14       C      2       6.000          6.487                        -0.487
     15       C      2       6.000          6.486                        -0.486
     16       C      2       6.000          6.486                        -0.486
     17       C      2       6.000          6.486                        -0.486
     18       C      2       6.000          6.486                        -0.486

  Total Charge                                                            0.048
 !-----------------------------------------------------------------------------!

 MOMENTS
  The electric/magnetic moments are written to file:
  Naphthalene-MOMENTS-moments-1_0.dat



 RI-RPA section
 --------------

  Used number of processes per group:                                          1
  Maximum allowed memory usage per MPI process:                      1024.00 MiB
  RI_INFO| Cholesky decomposition group size:                                  1
  RI_INFO| Number of groups for auxiliary basis functions                     16

  RI_INFO| RI metric:                                                    COULOMB
  RI_INFO| Number of auxiliary basis functions:                             1428
  GENERAL_INFO| Number of basis functions:                                   302
  GENERAL_INFO| Number of occupied orbitals:                                  34
  GENERAL_INFO| Number of virtual orbitals:                                  268
  RI_INFO| Total memory for (ia|K) integrals:                          99.27 MiB
  RI_INFO| Total memory for G0W0-(nm|K) integrals:                    993.65 MiB
  RI_INFO| Total memory for (ij|K) integrals:                          12.59 MiB
  RI_INFO| Total memory for (ab|K) integrals:                         782.51 MiB
  RI_INFO| Group size for frequency integration:                              16
  INTEG_INFO| Clenshaw-Curtius quadrature
  INTEG_INFO| Number of integration points:                                  300
  INTEG_INFO| Number of integration points per RPA group:                    300
  MATRIX_INFO| Number row processes:                                           2
  MATRIX_INFO| Number column processes:                                        8
  MATRIX_INFO| Row block size:                                               357
  MATRIX_INFO| Column block size:                                            569
  INTEG_INFO| Scaling parameter:                                         0.20000
  INTEG_INFO| Started with Integration point   1 of 300
  INTEG_INFO| Started with Integration point   2 of 300
  INTEG_INFO| Started with Integration point   3 of 300
  INTEG_INFO| Started with Integration point   4 of 300
  INTEG_INFO| Started with Integration point   5 of 300
  INTEG_INFO| Started with Integration point   6 of 300
  INTEG_INFO| Started with Integration point   7 of 300
  INTEG_INFO| Started with Integration point   8 of 300
  INTEG_INFO| Started with Integration point   9 of 300
  INTEG_INFO| Started with Integration point  10 of 300
  INTEG_INFO| Started with Integration point  11 of 300
  INTEG_INFO| Started with Integration point  12 of 300
  INTEG_INFO| Started with Integration point  13 of 300
  INTEG_INFO| Started with Integration point  14 of 300
  INTEG_INFO| Started with Integration point  15 of 300
  INTEG_INFO| Started with Integration point  16 of 300
  INTEG_INFO| Started with Integration point  17 of 300
  INTEG_INFO| Started with Integration point  18 of 300
  INTEG_INFO| Started with Integration point  19 of 300
  INTEG_INFO| Started with Integration point  20 of 300
  INTEG_INFO| Started with Integration point  21 of 300
  INTEG_INFO| Started with Integration point  22 of 300
  INTEG_INFO| Started with Integration point  23 of 300
  INTEG_INFO| Started with Integration point  24 of 300
  INTEG_INFO| Started with Integration point  25 of 300
  INTEG_INFO| Started with Integration point  26 of 300
  INTEG_INFO| Started with Integration point  27 of 300
  INTEG_INFO| Started with Integration point  28 of 300
  INTEG_INFO| Started with Integration point  29 of 300
  INTEG_INFO| Started with Integration point  30 of 300
  INTEG_INFO| Started with Integration point  31 of 300
  INTEG_INFO| Started with Integration point  32 of 300
  INTEG_INFO| Started with Integration point  33 of 300
  INTEG_INFO| Started with Integration point  34 of 300
  INTEG_INFO| Started with Integration point  35 of 300
  INTEG_INFO| Started with Integration point  36 of 300
  INTEG_INFO| Started with Integration point  37 of 300
  INTEG_INFO| Started with Integration point  38 of 300
  INTEG_INFO| Started with Integration point  39 of 300
  INTEG_INFO| Started with Integration point  40 of 300
  INTEG_INFO| Started with Integration point  41 of 300
  INTEG_INFO| Started with Integration point  42 of 300
  INTEG_INFO| Started with Integration point  43 of 300
  INTEG_INFO| Started with Integration point  44 of 300
  INTEG_INFO| Started with Integration point  45 of 300
  INTEG_INFO| Started with Integration point  46 of 300
  INTEG_INFO| Started with Integration point  47 of 300
  INTEG_INFO| Started with Integration point  48 of 300
  INTEG_INFO| Started with Integration point  49 of 300
  INTEG_INFO| Started with Integration point  50 of 300
  INTEG_INFO| Started with Integration point  51 of 300
  INTEG_INFO| Started with Integration point  52 of 300
  INTEG_INFO| Started with Integration point  53 of 300
  INTEG_INFO| Started with Integration point  54 of 300
  INTEG_INFO| Started with Integration point  55 of 300
  INTEG_INFO| Started with Integration point  56 of 300
  INTEG_INFO| Started with Integration point  57 of 300
  INTEG_INFO| Started with Integration point  58 of 300
  INTEG_INFO| Started with Integration point  59 of 300
  INTEG_INFO| Started with Integration point  60 of 300
  INTEG_INFO| Started with Integration point  61 of 300
  INTEG_INFO| Started with Integration point  62 of 300
  INTEG_INFO| Started with Integration point  63 of 300
  INTEG_INFO| Started with Integration point  64 of 300
  INTEG_INFO| Started with Integration point  65 of 300
  INTEG_INFO| Started with Integration point  66 of 300
  INTEG_INFO| Started with Integration point  67 of 300
  INTEG_INFO| Started with Integration point  68 of 300
  INTEG_INFO| Started with Integration point  69 of 300
  INTEG_INFO| Started with Integration point  70 of 300
  INTEG_INFO| Started with Integration point  71 of 300
  INTEG_INFO| Started with Integration point  72 of 300
  INTEG_INFO| Started with Integration point  73 of 300
  INTEG_INFO| Started with Integration point  74 of 300
  INTEG_INFO| Started with Integration point  75 of 300
  INTEG_INFO| Started with Integration point  76 of 300
  INTEG_INFO| Started with Integration point  77 of 300
  INTEG_INFO| Started with Integration point  78 of 300
  INTEG_INFO| Started with Integration point  79 of 300
  INTEG_INFO| Started with Integration point  80 of 300
  INTEG_INFO| Started with Integration point  81 of 300
  INTEG_INFO| Started with Integration point  82 of 300
  INTEG_INFO| Started with Integration point  83 of 300
  INTEG_INFO| Started with Integration point  84 of 300
  INTEG_INFO| Started with Integration point  85 of 300
  INTEG_INFO| Started with Integration point  86 of 300
  INTEG_INFO| Started with Integration point  87 of 300
  INTEG_INFO| Started with Integration point  88 of 300
  INTEG_INFO| Started with Integration point  89 of 300
  INTEG_INFO| Started with Integration point  90 of 300
  INTEG_INFO| Started with Integration point  91 of 300
  INTEG_INFO| Started with Integration point  92 of 300
  INTEG_INFO| Started with Integration point  93 of 300
  INTEG_INFO| Started with Integration point  94 of 300
  INTEG_INFO| Started with Integration point  95 of 300
  INTEG_INFO| Started with Integration point  96 of 300
  INTEG_INFO| Started with Integration point  97 of 300
  INTEG_INFO| Started with Integration point  98 of 300
  INTEG_INFO| Started with Integration point  99 of 300
  INTEG_INFO| Started with Integration point 100 of 300
  INTEG_INFO| Started with Integration point 101 of 300
  INTEG_INFO| Started with Integration point 102 of 300
  INTEG_INFO| Started with Integration point 103 of 300
  INTEG_INFO| Started with Integration point 104 of 300
  INTEG_INFO| Started with Integration point 105 of 300
  INTEG_INFO| Started with Integration point 106 of 300
  INTEG_INFO| Started with Integration point 107 of 300
  INTEG_INFO| Started with Integration point 108 of 300
  INTEG_INFO| Started with Integration point 109 of 300
  INTEG_INFO| Started with Integration point 110 of 300
  INTEG_INFO| Started with Integration point 111 of 300
  INTEG_INFO| Started with Integration point 112 of 300
  INTEG_INFO| Started with Integration point 113 of 300
  INTEG_INFO| Started with Integration point 114 of 300
  INTEG_INFO| Started with Integration point 115 of 300
  INTEG_INFO| Started with Integration point 116 of 300
  INTEG_INFO| Started with Integration point 117 of 300
  INTEG_INFO| Started with Integration point 118 of 300
  INTEG_INFO| Started with Integration point 119 of 300
  INTEG_INFO| Started with Integration point 120 of 300
  INTEG_INFO| Started with Integration point 121 of 300
  INTEG_INFO| Started with Integration point 122 of 300
  INTEG_INFO| Started with Integration point 123 of 300
  INTEG_INFO| Started with Integration point 124 of 300
  INTEG_INFO| Started with Integration point 125 of 300
  INTEG_INFO| Started with Integration point 126 of 300
  INTEG_INFO| Started with Integration point 127 of 300
  INTEG_INFO| Started with Integration point 128 of 300
  INTEG_INFO| Started with Integration point 129 of 300
  INTEG_INFO| Started with Integration point 130 of 300
  INTEG_INFO| Started with Integration point 131 of 300
  INTEG_INFO| Started with Integration point 132 of 300
  INTEG_INFO| Started with Integration point 133 of 300
  INTEG_INFO| Started with Integration point 134 of 300
  INTEG_INFO| Started with Integration point 135 of 300
  INTEG_INFO| Started with Integration point 136 of 300
  INTEG_INFO| Started with Integration point 137 of 300
  INTEG_INFO| Started with Integration point 138 of 300
  INTEG_INFO| Started with Integration point 139 of 300
  INTEG_INFO| Started with Integration point 140 of 300
  INTEG_INFO| Started with Integration point 141 of 300
  INTEG_INFO| Started with Integration point 142 of 300
  INTEG_INFO| Started with Integration point 143 of 300
  INTEG_INFO| Started with Integration point 144 of 300
  INTEG_INFO| Started with Integration point 145 of 300
  INTEG_INFO| Started with Integration point 146 of 300
  INTEG_INFO| Started with Integration point 147 of 300
  INTEG_INFO| Started with Integration point 148 of 300
  INTEG_INFO| Started with Integration point 149 of 300
  INTEG_INFO| Started with Integration point 150 of 300
  INTEG_INFO| Started with Integration point 151 of 300
  INTEG_INFO| Started with Integration point 152 of 300
  INTEG_INFO| Started with Integration point 153 of 300
  INTEG_INFO| Started with Integration point 154 of 300
  INTEG_INFO| Started with Integration point 155 of 300
  INTEG_INFO| Started with Integration point 156 of 300
  INTEG_INFO| Started with Integration point 157 of 300
  INTEG_INFO| Started with Integration point 158 of 300
  INTEG_INFO| Started with Integration point 159 of 300
  INTEG_INFO| Started with Integration point 160 of 300
  INTEG_INFO| Started with Integration point 161 of 300
  INTEG_INFO| Started with Integration point 162 of 300
  INTEG_INFO| Started with Integration point 163 of 300
  INTEG_INFO| Started with Integration point 164 of 300
  INTEG_INFO| Started with Integration point 165 of 300
  INTEG_INFO| Started with Integration point 166 of 300
  INTEG_INFO| Started with Integration point 167 of 300
  INTEG_INFO| Started with Integration point 168 of 300
  INTEG_INFO| Started with Integration point 169 of 300
  INTEG_INFO| Started with Integration point 170 of 300
  INTEG_INFO| Started with Integration point 171 of 300
  INTEG_INFO| Started with Integration point 172 of 300
  INTEG_INFO| Started with Integration point 173 of 300
  INTEG_INFO| Started with Integration point 174 of 300
  INTEG_INFO| Started with Integration point 175 of 300
[...]
 flops    32 x    78 x    73              2915328       0.0%    100.0%      0.0%     
 flops    32 x    78 x    78              3115008       0.0%    100.0%      0.0%     
 flops    23 x     9 x    96              3179520       0.0%    100.0%      0.0%     
 flops     9 x    23 x    96              3179520       0.0%    100.0%      0.0%     
 flops    23 x     9 x    64              4239360       0.0%    100.0%      0.0%     
 flops     9 x    23 x    64              4239360       0.0%    100.0%      0.0%     
 flops     2 x    12 x     9              4935168       0.0%    100.0%      0.0%     
 flops    55 x    73 x    73              7034280       0.0%    100.0%      0.0%     
 flops    55 x    78 x    73              7516080       0.0%    100.0%      0.0%     
 flops    55 x    73 x    78              7516080       0.0%    100.0%      0.0%     
 flops    23 x    23 x     9              7617600       0.0%    100.0%      0.0%     
 flops    23 x     9 x    23              7617600       0.0%    100.0%      0.0%     
 flops     9 x    23 x    23              7617600       0.0%    100.0%      0.0%     
 flops    55 x    78 x    78              8030880       0.0%    100.0%      0.0%     
 flops    23 x    23 x    78              9077640       0.0%    100.0%      0.0%     
 flops    23 x    23 x    96             11172480       0.0%    100.0%      0.0%     
 flops    32 x     2 x     9             13160448       0.0%    100.0%      0.0%     
 flops    23 x    23 x    64             14896640       0.0%    100.0%      0.0%     
 flops     2 x    12 x    23             15765120       0.0%    100.0%      0.0%     
 flops    23 x    23 x    23             24334000       0.0%    100.0%      0.0%     
 flops    12 x    12 x     9             29611008       0.0%    100.0%      0.0%     
 flops    14 x    14 x     9             40303872       0.0%    100.0%      0.0%     
 flops    32 x     2 x    23             42040320       0.0%    100.0%      0.0%     
 flops     9 x     2 x     9             59149440       0.0%    100.0%      0.0%     
 flops    12 x    12 x    23             94590720       0.0%    100.0%      0.0%     
 flops     2 x    32 x     9            118444032       0.0%    100.0%      0.0%     
 flops    14 x    14 x    23            128748480       0.0%    100.0%      0.0%     
 flops     9 x    12 x     9            177448320       0.0%    100.0%      0.0%     
 flops     9 x     2 x    23            189181440       0.0%    100.0%      0.0%     
 flops    23 x     2 x     9            189181440       0.0%    100.0%      0.0%     
 flops     9 x    14 x     9            207458496       0.0%    100.0%      0.0%     
 flops     2 x    32 x    23            378362880       0.0%    100.0%      0.0%     
 flops     9 x    12 x    23            567544320       0.0%    100.0%      0.0%     
 flops    23 x    12 x     9            567544320       0.0%    100.0%      0.0%     
 flops    23 x     2 x    23            604329600       0.0%    100.0%      0.0%     
 flops    12 x    32 x     9            631701504       0.0%    100.0%      0.0%     
 flops     9 x    14 x    23            663526080       0.0%    100.0%      0.0%     
 flops    23 x    14 x     9            663526080       0.0%    100.0%      0.0%     
 flops    32 x    12 x     9            710664192       0.0%    100.0%      0.0%     
 flops    32 x    14 x     9            829108224       0.0%    100.0%      0.0%     
 flops    14 x    32 x     9            829108224       0.0%    100.0%      0.0%     
 flops    23 x    12 x    23           1812988800       0.0%    100.0%      0.0%     
 flops    12 x    32 x    23           2017935360       0.0%    100.0%      0.0%     
 flops    23 x    14 x    23           2119597200       0.0%    100.0%      0.0%     
 flops    32 x    12 x    23           2270177280       0.0%    100.0%      0.0%     
 flops    32 x    14 x    23           2648540160       0.0%    100.0%      0.0%     
 flops    14 x    32 x    23           2648540160       0.0%    100.0%      0.0%     
 flops     9 x    32 x     9           9000336384       0.0%    100.0%      0.0%     
 flops    23 x    32 x     9          28786314240       0.0%    100.0%      0.0%     
 flops     9 x    32 x    23          28786314240       0.0%    100.0%      0.0%     
 flops    32 x    32 x     9          32427343872       0.0%    100.0%      0.0%     
 flops    23 x    32 x    23          91956281600       0.0%    100.0%      0.0%     
 flops    32 x    32 x    23         103587348480       0.0%    100.0%      0.0%     
 flops inhomo. stacks                           0       0.0%      0.0%      0.0%
 flops total                       315.989450E+09       0.0%    100.0%      0.0%
 flops max/rank                     19.918801E+09       0.0%    100.0%      0.0%
 matmuls inhomo. stacks                         0       0.0%      0.0%      0.0%
 matmuls total                           15874520       0.0%    100.0%      0.0%
 number of processed stacks                209576       0.0%    100.0%      0.0%
 average stack size                                     0.0      75.7       0.0
 marketing flops                   315.948761E+09
 -------------------------------------------------------------------------------
 # multiplications                            720
 max memory usage/rank               2.203472E+09
 # max total images/rank                        1
 # max 3D layers                                1
 # MPI messages exchanged                     768
 MPI messages size (bytes):
  total size                        33.297312E+06
  min size                           0.000000E+00
  max size                          59.904000E+03
  average size                      43.355875E+03
 MPI breakdown and total messages size (bytes):
             size <=      128                  24                        0
       128 < size <=     8192                   0                        0
      8192 < size <=    32768                  24                   463872
     32768 < size <=   131072                 720                 32833440
    131072 < size <=  4194304                   0                        0
   4194304 < size <= 16777216                   0                        0
  16777216 < size                               0                        0
 -------------------------------------------------------------------------------
 -                                                                             -
 -                      DBCSR MESSAGE PASSING PERFORMANCE                      -
 -                                                                             -
 -------------------------------------------------------------------------------
 ROUTINE             CALLS      AVE VOLUME [Bytes]
 MP_Bcast               75                     12.
 MP_Allreduce         3053                     18.
 MP_Alltoall          5931                 167638.
 MP_ISend             2976                   3927.
 MP_IRecv             2976                   3914.
 -------------------------------------------------------------------------------

 -------------------------------------------------------------------------------
 -                                                                             -
 -                                DBM STATISTICS                               -
 -                                                                             -
 -------------------------------------------------------------------------------
    M  x    N  x    K                                          COUNT     PERCENT
    ?  x    ?  x    ?                                      100939824      50.02%
   ??  x   ??  x   ??                                       75597984      37.46%
   ??  x    ?  x   ??                                       10799712       5.35%
   ??  x   ??  x    ?                                       10799712       5.35%
    ?  x   ??  x   ??                                        1658160       0.82%
   ??  x    ?  x    ?                                        1542816       0.76%
    ?  x    ?  x   ??                                         236880       0.12%
    ?  x   ??  x    ?                                         236880       0.12%
 -------------------------------------------------------------------------------
 Memory consumption                            Number of allocations  Size [MiB]
 Host                                                             17         158
 -------------------------------------------------------------------------------

 -------------------------------------------------------------------------------
 -                                                                             -
 -                                GRID STATISTICS                              -
 -                                                                             -
 -------------------------------------------------------------------------------
 LP    KERNEL             BACKEND                              COUNT     PERCENT
 1     collocate ortho    CPU                                   7616      17.23%
 1     integrate ortho    CPU                                   7616      17.23%
 2     collocate ortho    CPU                                   6028      13.64%
 2     integrate ortho    CPU                                   6028      13.64%
 0     collocate ortho    CPU                                   4812      10.88%
 0     integrate ortho    CPU                                   4812      10.88%
 3     collocate ortho    CPU                                   2344       5.30%
 3     integrate ortho    CPU                                   2344       5.30%
 2     collocate general  CPU                                    576       1.30%
 2     integrate general  CPU                                    576       1.30%
 4     collocate ortho    CPU                                    440       1.00%
 4     integrate ortho    CPU                                    440       1.00%
 0     collocate general  CPU                                    288       0.65%
 0     integrate general  CPU                                    288       0.65%
 -------------------------------------------------------------------------------

 MEMORY| Estimated peak process memory [MiB]                                2262

 -------------------------------------------------------------------------------
 ----                             MULTIGRID INFO                            ----
 -------------------------------------------------------------------------------
 count for grid        1:         116822          cutoff [a.u.]          300.00
 count for grid        2:          22716          cutoff [a.u.]          100.00
 count for grid        3:          23431          cutoff [a.u.]           33.33
 count for grid        4:          13587          cutoff [a.u.]           11.11
 total gridlevel count  :         176556

 -------------------------------------------------------------------------------
 -                                                                             -
 -                         MESSAGE PASSING PERFORMANCE                         -
 -                                                                             -
 -------------------------------------------------------------------------------

 ROUTINE             CALLS      AVE VOLUME [Bytes]
 MP_Group              150
 MP_Bcast              501                  64219.
 MP_Allreduce         3038                   9613.
 MP_Sync               974
 MP_Alltoall            97               30404292.
 MP_SendRecv            90                 232471.
 MP_ISendRecv          150                 148058.
 MP_Wait               581
 MP_comm_split          52
 MP_ISend             1062                 922648.
 MP_IRecv             1119                 884440.
 -------------------------------------------------------------------------------


 -------------------------------------------------------------------------------
 -                                                                             -
 -                           R E F E R E N C E S                               -
 -                                                                             -
 -------------------------------------------------------------------------------
 
 CP2K version 2025.1 (Development Version), the CP2K developers group (2025).
 CP2K is freely available from https://www.cp2k.org/ .
 
 T. D. Kuehne, M. Iannuzzi, M. Del Ben, V. V. Rybkin, P. Seewald, F. Stein, T. 
 Laino, R. Z. Khaliullin, O. Schuett, F. Schiffmann, D. Golze, J. Wilhelm, S. 
 Chulkov, M. H. Bani-Hashemian, V. Weber, U. Borstnik, M. Taillefumier, A. S. 
 Jakobovits, A. Lazzaro, H. Pabst, T. Mueller, R. Schade, M. Guidon, S. 
 Andermatt, N. Holmberg, G. K. Schenter, A. Hehn, A. Bussy, F. Belleflamme, G. 
 Tabacchi, A. Gloess, M. Lass, I. Bethune, C. J. Mundy, C. Plessl, M. Watkins, 
 J. VandeVondele, M. Krack, J. Hutter.
 J. Chem. Phys. 152, 194103 (2020).
 CP2K: An electronic structure and molecular dynamics software package - 
 Quickstep: Efficient and accurate electronic structure calculations.
 https://doi.org/10.1063/5.0007045

 J. Wilhelm, D. Golze, L. Talirz, J. Hutter, C. A. Pignedoli.
 J. Phys. Chem. Lett. 9, 306-312 (2018).
 Toward GW calculations on thousands of atoms.
 https://doi.org/10.1021/acs.jpclett.7b02740

 J. Wilhelm, J. Hutter.
 Phys. Rev. B 95, 235123 (2017).
 Periodic GW calculations in the Gaussian and plane-waves scheme.
 https://doi.org/10.1103/PhysRevB.95.235123

 O. Schuett, P. Messmer, J. Hutter, J. VandeVondele.
 Electronic Structure Calculations on Graphics Processing Units, 173-190 (2016).
 GPU-Accelerated Sparse Matrix-Matrix Multiplication for Linear Scaling Density 
 Functional Theory.
 https://doi.org/10.1002/9781118670712.ch8

 J. Wilhelm, M. Del Ben, J. Hutter.
 J. Chem. Theory Comput. 12, 3623-3635 (2016).
 GW in the Gaussian and plane waves scheme with application to linear acenes.
 https://doi.org/10.1021/acs.jctc.6b00380

 A. Heinecke, G. Henry, M. Hutchinson, H. Pabst.
 Proceedings of Intl. Supercomputing Conference, 981-991 (2016).
 LIBXSMM: Accelerating Small Matrix Multiplications by Runtime Code Generation.
 https://doi.org/10.1109/SC.2016.83

 M. Del Ben, O. Schuett, T. Wentz, P. Messmer, J. Hutter, J. VandeVondele.
 Comput. Phys. Commun. 187, 120-129 (2015).
 Enabling simulation at the fifth rung of DFT: Large scale RPA calculations with 
 excellent time to solution.
 https://doi.org/10.1016/j.cpc.2014.10.021

 J. Hutter, M. Iannuzzi, F. Schiffmann, J. VandeVondele.
 WIREs Comput Mol Sci. 4, 15-25 (2014).
 CP2K: atomistic simulations of condensed matter systems.
 https://doi.org/10.1002/wcms.1159

 U. Borstnik, J. VandeVondele, V. Weber, J. Hutter.
 Parallel Comput. 40, 47-58 (2014).
 Sparse matrix multiplication: The distributed block-compressed sparse row 
 library.
 https://doi.org/10.1016/j.parco.2014.03.012

 M. Del Ben, J. Hutter, J. VandeVondele.
 J. Chem. Theory Comput. 9, 2654-2671 (2013).
 Electron Correlation in the Condensed Phase from a Resolution of Identity 
 Approach Based on the Gaussian and Plane Waves Scheme.
 https://doi.org/10.1021/ct4002202

 M. Del Ben, J. Hutter, J. VandeVondele.
 J. Chem. Theory Comput. 8, 4177-4188 (2012).
 Second-Order Moller-Plesset Perturbation Theory in the Condensed Phase: An 
 Efficient and Massively Parallel Gaussian and Plane Waves Approach.
 https://doi.org/10.1021/ct300531w

 M. Guidon, J. Hutter, J. VandeVondele.
 J. Chem. Theory Comput. 5, 3010-3021 (2009).
 Robust Periodic Hartree-Fock Exchange for Large-Scale Simulations Using 
 Gaussian Basis Sets.
 https://doi.org/10.1021/ct900494g

 M. Guidon, F. Schiffmann, J. Hutter, J. VandeVondele.
 J. Chem. Phys. 128, 214104 (2008).
 Ab initio molecular dynamics using hybrid density functionals.
 https://doi.org/10.1063/1.2931945

 L. Genovese, T. Deutsch, S. Goedecker.
 J. Chem. Phys. 127, 054704 (2007).
 Efficient and accurate three-dimensional Poisson solver for surface problems.
 https://doi.org/10.1063/1.2754685

 L. Genovese, T. Deutsch, A. Neelov, S. Goedecker, G. Beylkin.
 J. Chem. Phys. 125, 074105 (2006).
 Efficient solution of Poisson's equation with free boundary conditions.
 https://doi.org/10.1063/1.2335442

 M. Frigo, S. G. Johnson.
 Proc. IEEE 93, 216-231 (2005).
 The design and implementation of FFTW3.
 https://doi.org/10.1109/JPROC.2004.840301

 M. Krack, M. Parrinello.
 Phys. Chem. Chem. Phys. 2, 2105-2112 (2000).
 All-electron ab-initio molecular dynamics.
 https://doi.org/10.1039/b001167n

 G. Lippert, J. Hutter, M. Parrinello.
 Theor. Chem. Acc. 103, 124-140 (1999).
 The Gaussian and augmented-plane-wave density functional method for ab initio 
 molecular dynamics simulations.
 https://doi.org/10.1007/s002140050523

 J. P. Perdew, K. Burke, M. Ernzerhof.
 Phys. Rev. Lett. 77, 3865-3868 (1996).
 Generalized gradient approximation made simple.
 https://doi.org/10.1103/PhysRevLett.77.3865


 -------------------------------------------------------------------------------
 -                                                                             -
 -                                T I M I N G                                  -
 -                                                                             -
 -------------------------------------------------------------------------------
 SUBROUTINE                       CALLS  ASD         SELF TIME        TOTAL TIME
                                MAXIMUM       AVERAGE  MAXIMUM  AVERAGE  MAXIMUM
 CP2K                                 1  1.0    0.026    0.031 1151.276 1151.280
 qs_energies                          1  2.0    0.000    0.001 1150.608 1150.642
 mp2_main                             1  3.0    0.000    0.000 1135.937 1135.971
 mp2_gpw_main                         1  4.0    0.000    0.000 1134.067 1134.091
 rpa_ri_compute_en                    1  5.0    0.001    0.003 1126.686 1126.704
 rpa_num_int                          1  6.0    0.003    0.004 1124.696 1124.748
 compute_GW_self_energy             300  7.0    0.012    0.015 1002.978 1005.299
 compute_GW_self_energy_deep        300  8.0  708.480  710.548  997.306  999.627
 parallel_gemm_fm                   618  9.5    0.002    0.002  339.820  340.327
 parallel_gemm_fm_gemm              618 10.5    0.002    0.002  339.818  340.326
 cp_fm_gemm                         618 11.5  339.816  340.324  339.816  340.324
 start_bse_calculation                1  7.0    0.001    0.001   83.070   83.087
 cp_fm_syevd                          4  7.8    0.000    0.000   58.420   58.721
 cp_fm_redistribute_end               4  8.8   29.220   58.536   29.336   58.536
 cp_fm_syevd_base                     4  8.8   28.843   57.748   28.843   57.748
 create_hermitian_form_of_ABBA        1  8.0    0.001    0.002   41.765   41.781
 diagonalize_C                        1  8.0    0.002    0.003   36.653   36.669
 rpa_num_int_RPA_matrix_operati     300  7.0    0.003    0.010   36.217   36.219
 calc_mat_Q                         300  8.0    0.001    0.002   33.335   33.506
 contract_S_to_Q                    300  9.0    0.003    0.003   32.970   33.129
 cp_fm_power                          1  9.0    0.325    0.333   31.857   31.932
 -------------------------------------------------------------------------------

 The number of warnings for this run is : 0
 
 -------------------------------------------------------------------------------
  **** **** ******  **  PROGRAM ENDED AT                 2025-02-21 13:14:18.786
 ***** ** ***  *** **   PROGRAM RAN ON                              i02r02c05s10
 **    ****   ******    PROGRAM RAN BY                                   di75qec
 ***** **    ** ** **   PROGRAM PROCESS ID                               1824965
  **** **  *******  **  PROGRAM STOPPED IN /hppfs/scratch/09/di75qec/Naphthalene
                                           _bse_9.4320075
