 DBCSR| CPU Multiplication driver                                           XSMM (U)
 DBCSR| Multrec recursion limit                                              512 (U)
 DBCSR| Multiplication stack size                                           1000 (D)
 DBCSR| Maximum elements for images                                    UNLIMITED (U)
 DBCSR| Multiplicative factor virtual images                                   1 (U)
 DBCSR| Use multiplication densification                                       T (D)
 DBCSR| Multiplication size stacks                                             3 (U)
 DBCSR| Use memory pool for CPU allocation                                     F (U)
 DBCSR| Number of 3D layers                                               SINGLE (U)
 DBCSR| Use MPI memory allocation                                              F (U)
 DBCSR| Use RMA algorithm                                                      F (U)
 DBCSR| Use Communication thread                                               T (U)
 DBCSR| Communication thread load                                             83 (D)
 DBCSR| MPI: My process id                                                     0
 DBCSR| MPI: Number of processes                                             144
 DBCSR| OMP: Current number of threads                                         2
 DBCSR| OMP: Max number of threads                                             2
 DBCSR| Split modifier for TAS multiplication algorithm                  1.0E+00 (U)


  **** **** ******  **  PROGRAM STARTED AT               2025-02-10 18:16:29.225
 ***** ** ***  *** **   PROGRAM STARTED ON                          i04r03c04s08
 **    ****   ******    PROGRAM STARTED BY                               di75qec
 ***** **    ** ** **   PROGRAM PROCESS ID                               2565745
  **** **  *******  **  PROGRAM STARTED IN /hppfs/scratch/09/di75qec/Furan_rtbse
                                           _x_7.4280782

 CP2K| version string:                 CP2K version 2025.1 (Development Version)
 CP2K| source code revision number:                                  git:26096ef
 CP2K| cp2kflags: omp libint fftw3 libxc parallel scalapack xsmm max_contr=4    
 CP2K| is freely available from                            https://www.cp2k.org/
 CP2K| Program compiled at                       Mon 10 Feb 2025 05:11:29 PM CET
 CP2K| Program compiled on                                               login04
 CP2K| Program compiled for                                        Supermuc-foss
 CP2K| Data directory path               /dss/dsshome1/09/di75qec/CP2K-foss/data
 CP2K| Input file name                                                 rtbse.inp

 GLOBAL| Force Environment number                                              1
 GLOBAL| Basis set file name                                         aug-cc-pvdz
 GLOBAL| Potential file name                                      ALL_POTENTIALS
 GLOBAL| MM Potential file name                                     MM_POTENTIAL
 GLOBAL| Coordinate file name                                          coord.xyz
 GLOBAL| Method name                                                        CP2K
 GLOBAL| Project name                                                      Furan
 GLOBAL| Run type                                                 RT_PROPAGATION
 GLOBAL| FFT library                                                       FFTW3
 GLOBAL| Diagonalization library                                       ScaLAPACK
 GLOBAL| DGEMM library                                                      BLAS
 GLOBAL| Orthonormality check for eigenvectors                          DISABLED
 GLOBAL| Matrix multiplication library                                 ScaLAPACK
 GLOBAL| All-to-all communication in single precision                          F
 GLOBAL| FFTs using library dependent lengths                                  F
 GLOBAL| Grid backend                                                       AUTO
 GLOBAL| Global print level                                               MEDIUM
 GLOBAL| MPI I/O enabled                                                       T
 GLOBAL| Total number of message passing processes                           144
 GLOBAL| Number of threads for this process                                    2
 GLOBAL| This output is from process                                           0
 GLOBAL| OpenMP stack size per thread (OMP_STACKSIZE)                    default
 GLOBAL| CPU model name             Intel(R) Xeon(R) Platinum 8174 CPU @ 3.10GHz
 GLOBAL| CPUID                                                              1003
 GLOBAL| Compiled for CPUID                                                    0

 *** HINT in environment.F:928 :: The compiler target flags (generic) used ***
 *** to build this binary cannot exploit all extensions of this CPU model  ***
 *** (x86_avx512). Consider compiler target flags as part of FCFLAGS and   ***
 *** CFLAGS (ARCH file).                                                   ***


 MEMORY| system memory details [Kb]
 MEMORY|                        rank 0           min           max       average
 MEMORY| MemTotal             98436664      98436664      98436712      98436672
 MEMORY| MemFree              82237088      82125848      82641432      82345437
 MEMORY| Buffers                     0             0             0             0
 MEMORY| Cached                2483500       2439344       2483500       2457439
 MEMORY| Slab                  1246796       1207948       1256924       1236582
 MEMORY| SReclaimable           265132        257668        277996        268341
 MEMORY| MemLikelyFree        84985720      84859780      85344808      85071218


 *** Fundamental physical constants (SI units) ***

 *** Literature: B. J. Mohr and B. N. Taylor,
 ***             CODATA recommended values of the fundamental physical
 ***             constants: 2006, Web Version 5.1
 ***             http://physics.nist.gov/constants

 Speed of light in vacuum [m/s]                             2.99792458000000E+08
 Magnetic constant or permeability of vacuum [N/A**2]       1.25663706143592E-06
 Electric constant or permittivity of vacuum [F/m]          8.85418781762039E-12
 Planck constant (h) [J*s]                                  6.62606896000000E-34
 Planck constant (h-bar) [J*s]                              1.05457162825177E-34
 Elementary charge [C]                                      1.60217648700000E-19
 Electron mass [kg]                                         9.10938215000000E-31
 Electron g factor [ ]                                     -2.00231930436220E+00
 Proton mass [kg]                                           1.67262163700000E-27
 Fine-structure constant                                    7.29735253760000E-03
 Rydberg constant [1/m]                                     1.09737315685270E+07
 Avogadro constant [1/mol]                                  6.02214179000000E+23
 Boltzmann constant [J/K]                                   1.38065040000000E-23
 Atomic mass unit [kg]                                      1.66053878200000E-27
 Bohr radius [m]                                            5.29177208590000E-11

 *** Conversion factors ***

 [u] -> [a.u.]                                              1.82288848426455E+03
 [Angstrom] -> [Bohr] = [a.u.]                              1.88972613288564E+00
 [a.u.] = [Bohr] -> [Angstrom]                              5.29177208590000E-01
 [a.u.] -> [s]                                              2.41888432650478E-17
 [a.u.] -> [fs]                                             2.41888432650478E-02
 [a.u.] -> [J]                                              4.35974393937059E-18
 [a.u.] -> [N]                                              8.23872205491840E-08
 [a.u.] -> [K]                                              3.15774647902944E+05
 [a.u.] -> [kJ/mol]                                         2.62549961709828E+03
 [a.u.] -> [kcal/mol]                                       6.27509468713739E+02
 [a.u.] -> [Pa]                                             2.94210107994716E+13
 [a.u.] -> [bar]                                            2.94210107994716E+08
 [a.u.] -> [atm]                                            2.90362800883016E+08
 [a.u.] -> [eV]                                             2.72113838565563E+01
 [a.u.] -> [Hz]                                             6.57968392072181E+15
 [a.u.] -> [1/cm] (wave numbers)                            2.19474631370540E+05
 [a.u./Bohr**2] -> [1/cm]                                   5.14048714338585E+03
 

 CELL_TOP| Volume [angstrom^3]:                                      8000.000000
 CELL_TOP| Vector a [angstrom    20.000     0.000     0.000   |a| =    20.000000
 CELL_TOP| Vector b [angstrom     0.000    20.000     0.000   |b| =    20.000000
 CELL_TOP| Vector c [angstrom     0.000     0.000    20.000   |c| =    20.000000
 CELL_TOP| Angle (b,c), alpha [degree]:                                90.000000
 CELL_TOP| Angle (a,c), beta  [degree]:                                90.000000
 CELL_TOP| Angle (a,b), gamma [degree]:                                90.000000
 CELL_TOP| Numerically orthorhombic:                                         YES
 CELL_TOP| Periodicity                                                      NONE

 GENERATE|  Preliminary Number of Bonds generated:                             0
 GENERATE|  Achieved consistency in connectivity generation.

 CELL| Volume [angstrom^3]:                                          8000.000000
 CELL| Vector a [angstrom]:      20.000     0.000     0.000   |a| =    20.000000
 CELL| Vector b [angstrom]:       0.000    20.000     0.000   |b| =    20.000000
 CELL| Vector c [angstrom]:       0.000     0.000    20.000   |c| =    20.000000
 CELL| Angle (b,c), alpha [degree]:                                    90.000000
 CELL| Angle (a,c), beta  [degree]:                                    90.000000
 CELL| Angle (a,b), gamma [degree]:                                    90.000000
 CELL| Numerically orthorhombic:                                             YES
 CELL| Periodicity                                                          NONE

 CELL_REF| Volume [angstrom^3]:                                      8000.000000
 CELL_REF| Vector a [angstrom    20.000     0.000     0.000   |a| =    20.000000
 CELL_REF| Vector b [angstrom     0.000    20.000     0.000   |b| =    20.000000
 CELL_REF| Vector c [angstrom     0.000     0.000    20.000   |c| =    20.000000
 CELL_REF| Angle (b,c), alpha [degree]:                                90.000000
 CELL_REF| Angle (a,c), beta  [degree]:                                90.000000
 CELL_REF| Angle (a,b), gamma [degree]:                                90.000000
 CELL_REF| Numerically orthorhombic:                                         YES
 CELL_REF| Periodicity                                                      NONE

 *******************************************************************************
 *******************************************************************************
 **                                                                           **
 **     #####                         ##              ##                      **
 **    ##   ##            ##          ##              ##                      **
 **   ##     ##                       ##            ######                    **
 **   ##     ##  ##   ##  ##   #####  ##  ##   ####   ##    #####    #####    **
 **   ##     ##  ##   ##  ##  ##      ## ##   ##      ##   ##   ##  ##   ##   **
 **   ##  ## ##  ##   ##  ##  ##      ####     ###    ##   ######   ######    **
 **    ##  ###   ##   ##  ##  ##      ## ##      ##   ##   ##       ##        **
 **     #######   #####   ##   #####  ##  ##  ####    ##    #####   ##        **
 **           ##                                                    ##        **
 **                                                                           **
 **                                                ... make the atoms dance   **
 **                                                                           **
 **            Copyright (C) by CP2K developers group (2000-2025)             **
 **                      J. Chem. Phys. 152, 194103 (2020)                    **
 **                                                                           **
 *******************************************************************************

 DFT| Spin restricted Kohn-Sham (RKS) calculation                            RKS
 DFT| Multiplicity                                                             1
 DFT| Number of spin states                                                    1
 DFT| Charge                                                                   0
 DFT| Self-interaction correction (SIC)                                       NO
 DFT| Cutoffs: density                                              1.000000E-10
 DFT|          gradient                                             1.000000E-10
 DFT|          tau                                                  1.000000E-10
 DFT|          cutoff_smoothing_range                               0.000000E+00
 DFT| XC density smoothing                                                  NONE
 DFT| XC derivatives                                                          PW

 FUNCTIONAL| PBE:
 FUNCTIONAL| J.P.Perdew, K.Burke, M.Ernzerhof, Phys. Rev. Letter, vol. 77, n 18,
 FUNCTIONAL|  pp. 3865-3868, (1996)sx=0.750sc=1.000{spin unpolarized}           


 QS| Method:                                                                GAPW
 QS| Density plane wave grid type                        NON-SPHERICAL FULLSPACE
 QS| Number of grid levels:                                                    4
 QS| Density cutoff [a.u.]:                                                300.0
 QS| Multi grid cutoff [a.u.]: 1) grid level                               300.0
 QS|                           2) grid level                               100.0
 QS|                           3) grid level                                33.3
 QS|                           4) grid level                                11.1
 QS| Grid level progression factor:                                          3.0
 QS| Relative density cutoff [a.u.]:                                        30.0
 QS| Interaction thresholds: eps_pgf_orb:                                1.0E-05
 QS|                         eps_filter_matrix:                          0.0E+00
 QS|                         eps_core_charge:                            1.0E-12
 QS|                         eps_rho_gspace:                             1.0E-10
 QS|                         eps_rho_rspace:                             1.0E-10
 QS|                         eps_gvg_rspace:                             1.0E-05
 QS|                         eps_ppl:                                    1.0E-02
 QS|                         eps_ppnl:                                   1.0E-07
 QS| GAPW|      One center basis from orbital basis primitives
 QS| GAPW|                   eps_fit:                                    1.0E-04
 QS| GAPW|                   eps_iso:                                    1.0E-12
 QS| GAPW|                   eps_svd:                                    1.0E-08
 QS| GAPW|                   eps_cpc:                                    1.0E-10
 QS| GAPW|   atom-r-grid: quadrature:                                     GC_LOG
 QS| GAPW|      atom-s-grid:  max l :                                          4
 QS| GAPW|      max_l_rho0 :                                                   2


 ATOMIC KIND INFORMATION

  1. Atomic kind: H                                     Number of atoms:       4

     Orbital Basis Set                                               aug-cc-pvdz

       Number of orbital shell sets:                                           4
       Number of orbital shells:                                               5
       Number of primitive Cartesian functions:                                7
       Number of Cartesian basis functions:                                    9
       Number of spherical basis functions:                                    9
       Norm type:                                                              2

       Normalised Cartesian orbitals:

                        Set   Shell   Orbital            Exponent    Coefficient

                          1       1    1s               13.010000       0.096107
                                                         1.962000       0.163020
                                                         0.444600       0.185545
                                                         0.122000       0.073744

                          1       2    2s               13.010000       0.000000
                                                         1.962000       0.000000
                                                         0.444600       0.000000
                                                         0.122000       0.147123

                          2       1    1s                0.029740       0.051041

                          3       1    1px               0.727000       0.956881
                          3       1    1py               0.727000       0.956881
                          3       1    1pz               0.727000       0.956881

                          4       1    1px               0.141000       0.123158
                          4       1    1py               0.141000       0.123158
                          4       1    1pz               0.141000       0.123158

     RI Auxiliary Basis Set                                    aug-cc-pvtz-rifit

       Number of orbital shell sets:                                          14
       Number of orbital shells:                                              14
       Number of primitive Cartesian functions:                               14
       Number of Cartesian basis functions:                                   55
       Number of spherical basis functions:                                   46
       Norm type:                                                              2

       Normalised Cartesian orbitals:

                        Set   Shell   Orbital            Exponent    Coefficient

                          1       1    1s                8.512828       3.551939

                          2       1    1s                1.873089       1.141114

                          3       1    1s                0.526184       0.440315

                          4       1    1s                0.289740       0.281460

                          5       1    1s                0.127194       0.151796

                          6       1    1px               2.372549       4.197195
                          6       1    1py               2.372549       4.197195
                          6       1    1pz               2.372549       4.197195

                          7       1    1px               1.180408       1.753802
                          7       1    1py               1.180408       1.753802
                          7       1    1pz               1.180408       1.753802

                          8       1    1px               0.603822       0.758711
                          8       1    1py               0.603822       0.758711
                          8       1    1pz               0.603822       0.758711

                          9       1    1px               0.235513       0.233861
                          9       1    1py               0.235513       0.233861
                          9       1    1pz               0.235513       0.233861

                         10       1    1dx2              1.809637       4.647235
                         10       1    1dxy              1.809637       8.049248
                         10       1    1dxz              1.809637       8.049248
                         10       1    1dy2              1.809637       4.647235
                         10       1    1dyz              1.809637       8.049248
                         10       1    1dz2              1.809637       4.647235

                         11       1    1dx2              1.143973       2.082748
                         11       1    1dxy              1.143973       3.607426
                         11       1    1dxz              1.143973       3.607426
                         11       1    1dy2              1.143973       2.082748
                         11       1    1dyz              1.143973       3.607426
                         11       1    1dz2              1.143973       2.082748

                         12       1    1dx2              0.436654       0.386056
                         12       1    1dxy              0.436654       0.668668
                         12       1    1dxz              0.436654       0.668668
                         12       1    1dy2              0.436654       0.386056
                         12       1    1dyz              0.436654       0.668668
                         12       1    1dz2              0.436654       0.386056

                         13       1    1fx3              1.806306       5.568458
                         13       1    1fx2y             1.806306      12.451451
                         13       1    1fx2z             1.806306      12.451451
                         13       1    1fxy2             1.806306      12.451451
                         13       1    1fxyz             1.806306      21.566546
                         13       1    1fxz2             1.806306      12.451451
                         13       1    1fy3              1.806306       5.568458
                         13       1    1fy2z             1.806306      12.451451
                         13       1    1fyz2             1.806306      12.451451
                         13       1    1fz3              1.806306       5.568458

                         14       1    1fx3              0.252978       0.066817
                         14       1    1fx2y             0.252978       0.149408
                         14       1    1fx2z             0.252978       0.149408
                         14       1    1fxy2             0.252978       0.149408
                         14       1    1fxyz             0.252978       0.258783
                         14       1    1fxz2             0.252978       0.149408
                         14       1    1fy3              0.252978       0.066817
                         14       1    1fy2z             0.252978       0.149408
                         14       1    1fyz2             0.252978       0.149408
                         14       1    1fz3              0.252978       0.066817

       Atomic covalent radius [Angstrom]:                                  0.320

       Atomic van der Waals radius [Angstrom]:                             1.090

     The atoms of this atomic kind are PAW atoms (GAPW):
       Hard Gaussian function radius:                                      1.200
       Rho0 radius:                                                        1.200
       Maximum GTO radius used for PAW projector construction:            24.566

     GAPW Soft Basis Set                                        aug-cc-pvdz_soft

       Number of orbital shell sets:                                           4
       Number of orbital shells:                                               5
       Number of primitive Cartesian functions:                                6
       Number of Cartesian basis functions:                                    9
       Number of spherical basis functions:                                    9
       Norm type:                                                              2

       Normalised Cartesian orbitals:

                        Set   Shell   Orbital            Exponent    Coefficient

                          1       1    1s                1.962000       0.163020
                                                         0.444600       0.185545
                                                         0.122000       0.073744

                          1       2    2s                1.962000       0.000000
                                                         0.444600       0.000000
                                                         0.122000       0.147123

                          2       1    1s                0.029740       0.051041

                          3       1    1px               0.727000       0.956881
                          3       1    1py               0.727000       0.956881
                          3       1    1pz               0.727000       0.956881

                          4       1    1px               0.141000       0.123158
                          4       1    1py               0.141000       0.123158
                          4       1    1pz               0.141000       0.123158

     AE Potential information for                                            ALL

       Description:                                       All-electron potential
                                          Krack, Parrinello, PCCP 2, 2105 (2000)

       Gaussian exponent of the core charge distribution:              12.500000
       Electronic configuration (s p d ...):                           1   0   0

  2. Atomic kind: C                                     Number of atoms:       4

     Orbital Basis Set                                               aug-cc-pvdz

       Number of orbital shell sets:                                           6
       Number of orbital shells:                                               9
       Number of primitive Cartesian functions:                               17
       Number of Cartesian basis functions:                                   25
       Number of spherical basis functions:                                   23
       Norm type:                                                              2

       Normalised Cartesian orbitals:

                        Set   Shell   Orbital            Exponent    Coefficient

                          1       1    1s             6665.000000       0.363803
                                                      1000.000000       0.675392
                                                       228.000000       1.132301
                                                        64.710000       1.654004
                                                        21.060000       1.924978
                                                         7.495000       1.448149
                                                         2.797000       0.439427
                                                         0.521500       0.006650
                                                         0.159600      -0.000574

                          1       2    2s             6665.000000      -0.076756
                                                      1000.000000      -0.146257
                                                       228.000000      -0.239407
                                                        64.710000      -0.379069
                                                        21.060000      -0.448104
                                                         7.495000      -0.484201
                                                         2.797000      -0.196168
                                                         0.521500       0.238162
                                                         0.159600       0.104468

                          1       3    3s             6665.000000       0.000000
                                                      1000.000000       0.000000
                                                       228.000000       0.000000
                                                        64.710000       0.000000
                                                        21.060000       0.000000
                                                         7.495000       0.000000
                                                         2.797000       0.000000
                                                         0.521500       0.000000
                                                         0.159600       0.179964

                          2       1    1s                0.046900       0.071827

                          3       1    1px               9.439000       0.898722
                                                         2.002000       0.711071
                                                         0.545600       0.339917
                                                         0.151700       0.063270
                          3       1    1py               9.439000       0.898722
                                                         2.002000       0.711071
                                                         0.545600       0.339917
                                                         0.151700       0.063270
                          3       1    1pz               9.439000       0.898722
                                                         2.002000       0.711071
                                                         0.545600       0.339917
                                                         0.151700       0.063270

                          3       2    2px               9.439000       0.000000
                                                         2.002000       0.000000
                                                         0.545600       0.000000
                                                         0.151700       0.134950
                          3       2    2py               9.439000       0.000000
                                                         2.002000       0.000000
                                                         0.545600       0.000000
                                                         0.151700       0.134950
                          3       2    2pz               9.439000       0.000000
                                                         2.002000       0.000000
                                                         0.545600       0.000000
                                                         0.151700       0.134950

                          4       1    1px               0.040410       0.025826
                          4       1    1py               0.040410       0.025826
                          4       1    1pz               0.040410       0.025826

                          5       1    1dx2              0.550000       0.578155
                          5       1    1dxy              0.550000       1.001394
                          5       1    1dxz              0.550000       1.001394
                          5       1    1dy2              0.550000       0.578155
                          5       1    1dyz              0.550000       1.001394
                          5       1    1dz2              0.550000       0.578155

                          6       1    1dx2              0.151000       0.060203
                          6       1    1dxy              0.151000       0.104275
                          6       1    1dxz              0.151000       0.104275
                          6       1    1dy2              0.151000       0.060203
                          6       1    1dyz              0.151000       0.104275
                          6       1    1dz2              0.151000       0.060203

     RI Auxiliary Basis Set                                    aug-cc-pvtz-rifit

       Number of orbital shell sets:                                          28
       Number of orbital shells:                                              28
       Number of primitive Cartesian functions:                               28
       Number of Cartesian basis functions:                                  136
       Number of spherical basis functions:                                  106
       Norm type:                                                              2

       Normalised Cartesian orbitals:

                        Set   Shell   Orbital            Exponent    Coefficient

                          1       1    1s              280.556612      48.856851

                          2       1    1s               60.230247      15.408880

                          3       1    1s               22.116651       7.268581

                          4       1    1s                6.862093       3.021708

                          5       1    1s                1.562255       0.995919

                          6       1    1s                0.912450       0.665376

                          7       1    1s                0.502749       0.425524

                          8       1    1s                0.215823       0.225675

                          9       1    1s                0.101536       0.128196

                         10       1    1px              24.231865      76.634379
                         10       1    1py              24.231865      76.634379
                         10       1    1pz              24.231865      76.634379

                         11       1    1px               6.476451      14.726905
                         11       1    1py               6.476451      14.726905
                         11       1    1pz               6.476451      14.726905

                         12       1    1px               2.129088       3.665914
                         12       1    1py               2.129088       3.665914
                         12       1    1pz               2.129088       3.665914

                         13       1    1px               1.037564       1.492652
                         13       1    1py               1.037564       1.492652
                         13       1    1pz               1.037564       1.492652

                         14       1    1px               0.549413       0.674238
                         14       1    1py               0.549413       0.674238
                         14       1    1pz               0.549413       0.674238

                         15       1    1px               0.281527       0.292307
                         15       1    1py               0.281527       0.292307
                         15       1    1pz               0.281527       0.292307

                         16       1    1px               0.115060       0.095520
                         16       1    1py               0.115060       0.095520
                         16       1    1pz               0.115060       0.095520

                         17       1    1dx2              9.718981      88.053322
                         17       1    1dxy              9.718981     152.512828
                         17       1    1dxz              9.718981     152.512828
                         17       1    1dy2              9.718981      88.053322
                         17       1    1dyz              9.718981     152.512828
                         17       1    1dz2              9.718981      88.053322

                         18       1    1dx2              3.035148      11.487463
                         18       1    1dxy              3.035148      19.896869
                         18       1    1dxz              3.035148      19.896869
                         18       1    1dy2              3.035148      11.487463
                         18       1    1dyz              3.035148      19.896869
                         18       1    1dz2              3.035148      11.487463

                         19       1    1dx2              1.467774       3.221535
                         19       1    1dxy              1.467774       5.579863
                         19       1    1dxz              1.467774       5.579863
                         19       1    1dy2              1.467774       3.221535
                         19       1    1dyz              1.467774       5.579863
                         19       1    1dz2              1.467774       3.221535

                         20       1    1dx2              0.573708       0.622471
                         20       1    1dxy              0.573708       1.078151
                         20       1    1dxz              0.573708       1.078151
                         20       1    1dy2              0.573708       0.622471
                         20       1    1dyz              0.573708       1.078151
                         20       1    1dz2              0.573708       0.622471

                         21       1    1dx2              0.290556       0.189261
                         21       1    1dxy              0.290556       0.327810
                         21       1    1dxz              0.290556       0.327810
                         21       1    1dy2              0.290556       0.189261
                         21       1    1dyz              0.290556       0.327810
                         21       1    1dz2              0.290556       0.189261

                         22       1    1dx2              0.148905       0.058749
                         22       1    1dxy              0.148905       0.101756
                         22       1    1dxz              0.148905       0.101756
                         22       1    1dy2              0.148905       0.058749
                         22       1    1dyz              0.148905       0.101756
                         22       1    1dz2              0.148905       0.058749

                         23       1    1fx3              2.275620       9.363300
                         23       1    1fx2y             2.275620      20.936975
                         23       1    1fx2z             2.275620      20.936975
                         23       1    1fxy2             2.275620      20.936975
                         23       1    1fxyz             2.275620      36.263904
                         23       1    1fxz2             2.275620      20.936975
                         23       1    1fy3              2.275620       9.363300
                         23       1    1fy2z             2.275620      20.936975
                         23       1    1fyz2             2.275620      20.936975
                         23       1    1fz3              2.275620       9.363300

                         24       1    1fx3              1.196890       2.205852
                         24       1    1fx2y             1.196890       4.932435
                         24       1    1fx2z             1.196890       4.932435
                         24       1    1fxy2             1.196890       4.932435
                         24       1    1fxyz             1.196890       8.543228
                         24       1    1fxz2             1.196890       4.932435
                         24       1    1fy3              1.196890       2.205852
                         24       1    1fy2z             1.196890       4.932435
                         24       1    1fyz2             1.196890       4.932435
                         24       1    1fz3              1.196890       2.205852

                         25       1    1fx3              0.541575       0.370413
                         25       1    1fx2y             0.541575       0.828268
                         25       1    1fx2z             0.541575       0.828268
                         25       1    1fxy2             0.541575       0.828268
                         25       1    1fxyz             0.541575       1.434603
                         25       1    1fxz2             0.541575       0.828268
                         25       1    1fy3              0.541575       0.370413
                         25       1    1fy2z             0.541575       0.828268
                         25       1    1fyz2             0.541575       0.828268
                         25       1    1fz3              0.541575       0.370413

                         26       1    1fx3              0.201793       0.040178
                         26       1    1fx2y             0.201793       0.089842
                         26       1    1fx2z             0.201793       0.089842
                         26       1    1fxy2             0.201793       0.089842
                         26       1    1fxyz             0.201793       0.155610
                         26       1    1fxz2             0.201793       0.089842
                         26       1    1fy3              0.201793       0.040178
                         26       1    1fy2z             0.201793       0.089842
                         26       1    1fyz2             0.201793       0.089842
                         26       1    1fz3              0.201793       0.040178

                         27       1    1gx4              1.216610       1.908103
                         27       1    1gx3y             1.216610       5.048367
                         27       1    1gx3z             1.216610       5.048367
                         27       1    1gx2y2            1.216610       6.517414
                         27       1    1gx2yz            1.216610      11.288491
                         27       1    1gx2z2            1.216610       6.517414
                         27       1    1gxy3             1.216610       5.048367
                         27       1    1gxy2z            1.216610      11.288491
                         27       1    1gxyz2            1.216610      11.288491
                         27       1    1gxz3             1.216610       5.048367
                         27       1    1gy4              1.216610       1.908103
                         27       1    1gy3z             1.216610       5.048367
                         27       1    1gy2z2            1.216610       6.517414
                         27       1    1gyz3             1.216610       5.048367
                         27       1    1gz4              1.216610       1.908103

                         28       1    1gx4              0.435998       0.113505
                         28       1    1gx3y             0.435998       0.300307
                         28       1    1gx3z             0.435998       0.300307
                         28       1    1gx2y2            0.435998       0.387695
                         28       1    1gx2yz            0.435998       0.671507
                         28       1    1gx2z2            0.435998       0.387695
                         28       1    1gxy3             0.435998       0.300307
                         28       1    1gxy2z            0.435998       0.671507
                         28       1    1gxyz2            0.435998       0.671507
                         28       1    1gxz3             0.435998       0.300307
                         28       1    1gy4              0.435998       0.113505
                         28       1    1gy3z             0.435998       0.300307
                         28       1    1gy2z2            0.435998       0.387695
                         28       1    1gyz3             0.435998       0.300307
                         28       1    1gz4              0.435998       0.113505

       Atomic covalent radius [Angstrom]:                                  0.770

       Atomic van der Waals radius [Angstrom]:                             1.700

     The atoms of this atomic kind are PAW atoms (GAPW):
       Hard Gaussian function radius:                                      1.512
       Rho0 radius:                                                        1.512
       Maximum GTO radius used for PAW projector construction:            24.566

     GAPW Soft Basis Set                                        aug-cc-pvdz_soft

       Number of orbital shell sets:                                           6
       Number of orbital shells:                                               9
       Number of primitive Cartesian functions:                               10
       Number of Cartesian basis functions:                                   25
       Number of spherical basis functions:                                   23
       Norm type:                                                              2

       Normalised Cartesian orbitals:

                        Set   Shell   Orbital            Exponent    Coefficient

                          1       1    1s                2.797000       0.439427
                                                         0.521500       0.006650
                                                         0.159600      -0.000574

                          1       2    2s                2.797000      -0.196168
                                                         0.521500       0.238162
                                                         0.159600       0.104468

                          1       3    3s                2.797000       0.000000
                                                         0.521500       0.000000
                                                         0.159600       0.179964

                          2       1    1s                0.046900       0.071827

                          3       1    1px               2.002000       0.711071
                                                         0.545600       0.339917
                                                         0.151700       0.063270
                          3       1    1py               2.002000       0.711071
                                                         0.545600       0.339917
                                                         0.151700       0.063270
                          3       1    1pz               2.002000       0.711071
                                                         0.545600       0.339917
                                                         0.151700       0.063270

                          3       2    2px               2.002000       0.000000
                                                         0.545600       0.000000
                                                         0.151700       0.134950
                          3       2    2py               2.002000       0.000000
                                                         0.545600       0.000000
                                                         0.151700       0.134950
                          3       2    2pz               2.002000       0.000000
                                                         0.545600       0.000000
                                                         0.151700       0.134950

                          4       1    1px               0.040410       0.025826
                          4       1    1py               0.040410       0.025826
                          4       1    1pz               0.040410       0.025826

                          5       1    1dx2              0.550000       0.578155
                          5       1    1dxy              0.550000       1.001394
                          5       1    1dxz              0.550000       1.001394
                          5       1    1dy2              0.550000       0.578155
                          5       1    1dyz              0.550000       1.001394
                          5       1    1dz2              0.550000       0.578155

                          6       1    1dx2              0.151000       0.060203
                          6       1    1dxy              0.151000       0.104275
                          6       1    1dxz              0.151000       0.104275
                          6       1    1dy2              0.151000       0.060203
                          6       1    1dyz              0.151000       0.104275
                          6       1    1dz2              0.151000       0.060203

     AE Potential information for                                            ALL

       Description:                                       All-electron potential
                                          Krack, Parrinello, PCCP 2, 2105 (2000)

       Gaussian exponent of the core charge distribution:               4.109048
       Electronic configuration (s p d ...):                           4   2   0

  3. Atomic kind: O                                     Number of atoms:       1

     Orbital Basis Set                                               aug-cc-pvdz

       Number of orbital shell sets:                                           6
       Number of orbital shells:                                               9
       Number of primitive Cartesian functions:                               17
       Number of Cartesian basis functions:                                   25
       Number of spherical basis functions:                                   23
       Norm type:                                                              2

       Normalised Cartesian orbitals:

                        Set   Shell   Orbital            Exponent    Coefficient

                          1       1    1s            11720.000000       0.569986
                                                      1759.000000       1.058881
                                                       400.800000       1.777168
                                                       113.700000       2.600710
                                                        37.030000       3.028357
                                                        13.270000       2.223504
                                                         5.025000       0.648119
                                                         1.013000       0.011124
                                                         0.302300      -0.000751

                          1       2    2s            11720.000000      -0.128448
                                                      1759.000000      -0.244491
                                                       400.800000      -0.400097
                                                       113.700000      -0.638166
                                                        37.030000      -0.758785
                                                        13.270000      -0.819649
                                                         5.025000      -0.279757
                                                         1.013000       0.401106
                                                         0.302300       0.166422

                          1       3    3s            11720.000000       0.000000
                                                      1759.000000       0.000000
                                                       400.800000       0.000000
                                                       113.700000       0.000000
                                                        37.030000       0.000000
                                                        13.270000       0.000000
                                                         5.025000       0.000000
                                                         1.013000       0.000000
                                                         0.302300       0.290562

                          2       1    1s                0.078960       0.106161

                          3       1    1px              17.700000       2.226162
                                                         3.854000       1.761976
                                                         1.046000       0.767079
                                                         0.275300       0.130905
                          3       1    1py              17.700000       2.226162
                                                         3.854000       1.761976
                                                         1.046000       0.767079
                                                         0.275300       0.130905
                          3       1    1pz              17.700000       2.226162
                                                         3.854000       1.761976
                                                         1.046000       0.767079
                                                         0.275300       0.130905

                          3       2    2px              17.700000       0.000000
                                                         3.854000       0.000000
                                                         1.046000       0.000000
                                                         0.275300       0.284248
                          3       2    2py              17.700000       0.000000
                                                         3.854000       0.000000
                                                         1.046000       0.000000
                                                         0.275300       0.284248
                          3       2    2pz              17.700000       0.000000
                                                         3.854000       0.000000
                                                         1.046000       0.000000
                                                         0.275300       0.284248

                          4       1    1px               0.068560       0.050007
                          4       1    1py               0.068560       0.050007
                          4       1    1pz               0.068560       0.050007

                          5       1    1dx2              1.185000       2.215218
                          5       1    1dxy              1.185000       3.836871
                          5       1    1dxz              1.185000       3.836871
                          5       1    1dy2              1.185000       2.215218
                          5       1    1dyz              1.185000       3.836871
                          5       1    1dz2              1.185000       2.215218

                          6       1    1dx2              0.332000       0.239002
                          6       1    1dxy              0.332000       0.413963
                          6       1    1dxz              0.332000       0.413963
                          6       1    1dy2              0.332000       0.239002
                          6       1    1dyz              0.332000       0.413963
                          6       1    1dz2              0.332000       0.239002

     RI Auxiliary Basis Set                                    aug-cc-pvtz-rifit

       Number of orbital shell sets:                                          28
       Number of orbital shells:                                              28
       Number of primitive Cartesian functions:                               28
       Number of Cartesian basis functions:                                  136
       Number of spherical basis functions:                                  106
       Norm type:                                                              2

       Normalised Cartesian orbitals:

                        Set   Shell   Orbital            Exponent    Coefficient

                          1       1    1s              366.545315      59.704332

                          2       1    1s               76.693315      18.470482

                          3       1    1s               24.573835       7.866197

                          4       1    1s                8.416559       3.521770

                          5       1    1s                3.020208       1.632818

                          6       1    1s                1.333156       0.884242

                          7       1    1s                0.812507       0.609930

                          8       1    1s                0.365053       0.334716

                          9       1    1s                0.112118       0.138092

                         10       1    1px              52.854386     203.138098
                         10       1    1py              52.854386     203.138098
                         10       1    1pz              52.854386     203.138098

                         11       1    1px              15.021796      42.154351
                         11       1    1py              15.021796      42.154351
                         11       1    1pz              15.021796      42.154351

                         12       1    1px               3.913772       7.846654
                         12       1    1py               3.913772       7.846654
                         12       1    1pz               3.913772       7.846654

                         13       1    1px               2.167884       3.749602
                         13       1    1py               2.167884       3.749602
                         13       1    1pz               2.167884       3.749602

                         14       1    1px               0.974192       1.379577
                         14       1    1py               0.974192       1.379577
                         14       1    1pz               0.974192       1.379577

                         15       1    1px               0.518456       0.627090
                         15       1    1py               0.518456       0.627090
                         15       1    1pz               0.518456       0.627090

                         16       1    1px               0.213545       0.206919
                         16       1    1py               0.213545       0.206919
                         16       1    1pz               0.213545       0.206919

                         17       1    1dx2             15.907733     208.556618
                         17       1    1dxy             15.907733     361.230658
                         17       1    1dxz             15.907733     361.230658
                         17       1    1dy2             15.907733     208.556618
                         17       1    1dyz             15.907733     361.230658
                         17       1    1dz2             15.907733     208.556618

                         18       1    1dx2              5.379933      31.280160
                         18       1    1dxy              5.379933      54.178826
                         18       1    1dxz              5.379933      54.178826
                         18       1    1dy2              5.379933      31.280160
                         18       1    1dyz              5.379933      54.178826
                         18       1    1dz2              5.379933      31.280160

                         19       1    1dx2              2.955262      10.963584
                         19       1    1dxy              2.955262      18.989484
                         19       1    1dxz              2.955262      18.989484
                         19       1    1dy2              2.955262      10.963584
                         19       1    1dyz              2.955262      18.989484
                         19       1    1dz2              2.955262      10.963584

                         20       1    1dx2              1.162446       2.141962
                         20       1    1dxy              1.162446       3.709987
                         20       1    1dxz              1.162446       3.709987
                         20       1    1dy2              1.162446       2.141962
                         20       1    1dyz              1.162446       3.709987
                         20       1    1dz2              1.162446       2.141962

                         21       1    1dx2              0.503534       0.495404
                         21       1    1dxy              0.503534       0.858066
                         21       1    1dxz              0.503534       0.858066
                         21       1    1dy2              0.503534       0.495404
                         21       1    1dyz              0.503534       0.858066
                         21       1    1dz2              0.503534       0.495404

                         22       1    1dx2              0.167346       0.072067
                         22       1    1dxy              0.167346       0.124823
                         22       1    1dxz              0.167346       0.124823
                         22       1    1dy2              0.167346       0.072067
                         22       1    1dyz              0.167346       0.124823
                         22       1    1dz2              0.167346       0.072067

                         23       1    1fx3              4.687385      47.593571
                         23       1    1fx2y             4.687385     106.422459
                         23       1    1fx2z             4.687385     106.422459
                         23       1    1fxy2             4.687385     106.422459
                         23       1    1fxyz             4.687385     184.329107
                         23       1    1fxz2             4.687385     106.422459
                         23       1    1fy3              4.687385      47.593571
                         23       1    1fy2z             4.687385     106.422459
                         23       1    1fyz2             4.687385     106.422459
                         23       1    1fz3              4.687385      47.593571

                         24       1    1fx3              2.151279       8.251294
                         24       1    1fx2y             2.151279      18.450455
                         24       1    1fx2z             2.151279      18.450455
                         24       1    1fxy2             2.151279      18.450455
                         24       1    1fxyz             2.151279      31.957126
                         24       1    1fxz2             2.151279      18.450455
                         24       1    1fy3              2.151279       8.251294
                         24       1    1fy2z             2.151279      18.450455
                         24       1    1fyz2             2.151279      18.450455
                         24       1    1fz3              2.151279       8.251294

                         25       1    1fx3              1.089407       1.784975
                         25       1    1fx2y             1.089407       3.991326
                         25       1    1fx2z             1.089407       3.991326
                         25       1    1fxy2             1.089407       3.991326
                         25       1    1fxyz             1.089407       6.913179
                         25       1    1fxz2             1.089407       3.991326
                         25       1    1fy3              1.089407       1.784975
                         25       1    1fy2z             1.089407       3.991326
                         25       1    1fyz2             1.089407       3.991326
                         25       1    1fz3              1.089407       1.784975

                         26       1    1fx3              0.403837       0.191390
                         26       1    1fx2y             0.403837       0.427960
                         26       1    1fx2z             0.403837       0.427960
                         26       1    1fxy2             0.403837       0.427960
                         26       1    1fxyz             0.403837       0.741249
                         26       1    1fxz2             0.403837       0.427960
                         26       1    1fy3              0.403837       0.191390
                         26       1    1fy2z             0.403837       0.427960
                         26       1    1fyz2             0.403837       0.427960
                         26       1    1fz3              0.403837       0.191390

                         27       1    1gx4              2.327096      11.354683
                         27       1    1gx3y             2.327096      30.041666
                         27       1    1gx3z             2.327096      30.041666
                         27       1    1gx2y2            2.327096      38.783625
                         27       1    1gx2yz            2.327096      67.175208
                         27       1    1gx2z2            2.327096      38.783625
                         27       1    1gxy3             2.327096      30.041666
                         27       1    1gxy2z            2.327096      67.175208
                         27       1    1gxyz2            2.327096      67.175208
                         27       1    1gxz3             2.327096      30.041666
                         27       1    1gy4              2.327096      11.354683
                         27       1    1gy3z             2.327096      30.041666
                         27       1    1gy2z2            2.327096      38.783625
                         27       1    1gyz3             2.327096      30.041666
                         27       1    1gz4              2.327096      11.354683

                         28       1    1gx4              0.786558       0.575035
                         28       1    1gx3y             0.786558       1.521400
                         28       1    1gx3z             0.786558       1.521400
                         28       1    1gx2y2            0.786558       1.964119
                         28       1    1gx2yz            0.786558       3.401953
                         28       1    1gx2z2            0.786558       1.964119
                         28       1    1gxy3             0.786558       1.521400
                         28       1    1gxy2z            0.786558       3.401953
                         28       1    1gxyz2            0.786558       3.401953
                         28       1    1gxz3             0.786558       1.521400
                         28       1    1gy4              0.786558       0.575035
                         28       1    1gy3z             0.786558       1.521400
                         28       1    1gy2z2            0.786558       1.964119
                         28       1    1gyz3             0.786558       1.521400
                         28       1    1gz4              0.786558       0.575035

       Atomic covalent radius [Angstrom]:                                  0.730

       Atomic van der Waals radius [Angstrom]:                             1.520

     The atoms of this atomic kind are PAW atoms (GAPW):
       Hard Gaussian function radius:                                      1.512
       Rho0 radius:                                                        1.512
       Maximum GTO radius used for PAW projector construction:            24.566

     GAPW Soft Basis Set                                        aug-cc-pvdz_soft

       Number of orbital shell sets:                                           6
       Number of orbital shells:                                               9
       Number of primitive Cartesian functions:                                9
       Number of Cartesian basis functions:                                   25
       Number of spherical basis functions:                                   23
       Norm type:                                                              2

       Normalised Cartesian orbitals:

                        Set   Shell   Orbital            Exponent    Coefficient

                          1       1    1s                1.013000       0.011124
                                                         0.302300      -0.000751

                          1       2    2s                1.013000       0.401106
                                                         0.302300       0.166422

                          1       3    3s                1.013000       0.000000
                                                         0.302300       0.290562

                          2       1    1s                0.078960       0.106161

                          3       1    1px               3.854000       1.761976
                                                         1.046000       0.767079
                                                         0.275300       0.130905
                          3       1    1py               3.854000       1.761976
                                                         1.046000       0.767079
                                                         0.275300       0.130905
                          3       1    1pz               3.854000       1.761976
                                                         1.046000       0.767079
                                                         0.275300       0.130905

                          3       2    2px               3.854000       0.000000
                                                         1.046000       0.000000
                                                         0.275300       0.284248
                          3       2    2py               3.854000       0.000000
                                                         1.046000       0.000000
                                                         0.275300       0.284248
                          3       2    2pz               3.854000       0.000000
                                                         1.046000       0.000000
                                                         0.275300       0.284248

                          4       1    1px               0.068560       0.050007
                          4       1    1py               0.068560       0.050007
                          4       1    1pz               0.068560       0.050007

                          5       1    1dx2              1.185000       2.215218
                          5       1    1dxy              1.185000       3.836871
                          5       1    1dxz              1.185000       3.836871
                          5       1    1dy2              1.185000       2.215218
                          5       1    1dyz              1.185000       3.836871
                          5       1    1dz2              1.185000       2.215218

                          6       1    1dx2              0.332000       0.239002
                          6       1    1dxy              0.332000       0.413963
                          6       1    1dxz              0.332000       0.413963
                          6       1    1dy2              0.332000       0.239002
                          6       1    1dyz              0.332000       0.413963
                          6       1    1dz2              0.332000       0.239002

     AE Potential information for                                            ALL

       Description:                                       All-electron potential
                                          Krack, Parrinello, PCCP 2, 2105 (2000)

       Gaussian exponent of the core charge distribution:               8.154466
       Electronic configuration (s p d ...):                           4   4   0


 MOLECULE KIND INFORMATION


 All atoms are their own molecule, skipping detailed information


 TOTAL NUMBERS AND MAXIMUM NUMBERS

  Total number of            - Atomic kinds:                                   3
                             - Atoms:                                          9
                             - Shell sets:                                    46
                             - Shells:                                        65
                             - Primitive Cartesian functions:                113
                             - Cartesian basis functions:                    161
                             - Spherical basis functions:                    151

  Maximum angular momentum of the orbital basis functions:                     2


 MODULE QUICKSTEP: ATOMIC COORDINATES IN ANGSTROM

   Atom Kind Element         X             Y             Z       Z(eff)     Mass
      1    1 H     1     10.000000     12.051058     11.179705   1.0000   1.0079
      2    1 H     1     10.000000      7.948942     11.179705   1.0000   1.0079
      3    1 H     1     10.000000     11.371979      8.506948   1.0000   1.0079
      4    1 H     1     10.000000      8.628021      8.506948   1.0000   1.0079
      5    2 C     6     10.000000     11.095840     10.676473   6.0000  12.0107
      6    2 C     6     10.000000      8.904160     10.676473   6.0000  12.0107
      7    2 C     6     10.000000     10.714027      9.364898   6.0000  12.0107
      8    2 C     6     10.000000      9.285973      9.364898   6.0000  12.0107
      9    3 O     8     10.000000     10.000000     11.493053   8.0000  15.9994



 SCF PARAMETERS         Density guess:                                   RESTART
                        --------------------------------------------------------
                        max_scf:                                             200
                        max_scf_history:                                       0
                        max_diis:                                              4
                        --------------------------------------------------------
                        eps_scf:                                        1.00E-09
                        eps_scf_history:                                0.00E+00
                        eps_diis:                                       1.00E-01
                        eps_eigval:                                     1.00E-05
                        --------------------------------------------------------
                        level_shift [a.u.]:                             0.000000
                        added MOs                                       133    0
                        --------------------------------------------------------
                        Mixing method:                            BROYDEN_MIXING
                                                charge density mixing in g-space
                        --------------------------------------------------------
                        No outer SCF

 PW_GRID| Information for grid number                                          1
 PW_GRID| Grid distributed over                                   144 processors
 PW_GRID| Real space group dimensions                                   144    1
 PW_GRID| the grid is blocked:                                                NO
 PW_GRID| Cutoff [a.u.]                                                    300.0
 PW_GRID| spherical cutoff:                                                   NO
 PW_GRID|   Bounds   1           -150     149                Points:         300
 PW_GRID|   Bounds   2           -150     149                Points:         300
 PW_GRID|   Bounds   3           -150     149                Points:         300
 PW_GRID| Volume element (a.u.^3)  0.2000E-02     Volume (a.u.^3)     53986.6767
 PW_GRID| Grid span                                                    FULLSPACE
 PW_GRID|   Distribution                         Average         Max         Min
 PW_GRID|   G-Vectors                           187500.0      187500      187500
 PW_GRID|   G-Rays                                 625.0         625         625
 PW_GRID|   Real Space Points                   187500.0      270000      180000

 PW_GRID| Information for grid number                                          2
 PW_GRID| Number of the reference grid                                         1
 PW_GRID| Grid distributed over                                   144 processors
 PW_GRID| Real space group dimensions                                   144    1
 PW_GRID| the grid is blocked:                                                NO
 PW_GRID| Cutoff [a.u.]                                                    100.0
 PW_GRID| spherical cutoff:                                                   NO
 PW_GRID|   Bounds   1            -90      89                Points:         180
 PW_GRID|   Bounds   2            -90      89                Points:         180
 PW_GRID|   Bounds   3            -90      89                Points:         180
 PW_GRID| Volume element (a.u.^3)  0.9257E-02     Volume (a.u.^3)     53986.6767
 PW_GRID| Grid span                                                    FULLSPACE
 PW_GRID|   Distribution                         Average         Max         Min
 PW_GRID|   G-Vectors                            40500.0       40680       40320
 PW_GRID|   G-Rays                                 225.0         226         224
 PW_GRID|   Real Space Points                    40500.0       64800       32400

 PW_GRID| Information for grid number                                          3
 PW_GRID| Number of the reference grid                                         1
 PW_GRID| Grid distributed over                                   144 processors
 PW_GRID| Real space group dimensions                                    12   12
 PW_GRID| the grid is blocked:                                                NO
 PW_GRID| Cutoff [a.u.]                                                     33.3
 PW_GRID| spherical cutoff:                                                   NO
 PW_GRID|   Bounds   1            -50      49                Points:         100
 PW_GRID|   Bounds   2            -50      49                Points:         100
 PW_GRID|   Bounds   3            -50      49                Points:         100
 PW_GRID| Volume element (a.u.^3)  0.5399E-01     Volume (a.u.^3)     53986.6767
 PW_GRID| Grid span                                                    FULLSPACE
 PW_GRID|   Distribution                         Average         Max         Min
 PW_GRID|   G-Vectors                             6944.4        7100        6800
 PW_GRID|   G-Rays                                  69.4          71          68
 PW_GRID|   Real Space Points                     6944.4        8100        6400

 PW_GRID| Information for grid number                                          4
 PW_GRID| Number of the reference grid                                         1
 PW_GRID| Grid distributed over                                   144 processors
 PW_GRID| Real space group dimensions                                    12   12
 PW_GRID| the grid is blocked:                                                NO
 PW_GRID| Cutoff [a.u.]                                                     11.1
 PW_GRID| spherical cutoff:                                                   NO
 PW_GRID|   Bounds   1            -30      29                Points:          60
 PW_GRID|   Bounds   2            -30      29                Points:          60
 PW_GRID|   Bounds   3            -30      29                Points:          60
 PW_GRID| Volume element (a.u.^3)  0.2499         Volume (a.u.^3)     53986.6767
 PW_GRID| Grid span                                                    FULLSPACE
 PW_GRID|   Distribution                         Average         Max         Min
 PW_GRID|   G-Vectors                             1500.0        1560        1440
 PW_GRID|   G-Rays                                  25.0          26          24
 PW_GRID|   Real Space Points                     1500.0        1500        1500

 POISSON| Solver                                                         WAVELET
 POISSON| Wavelet| Scaling function                                           40
 POISSON| Periodicity                                                       NONE

 RS_GRID| Information for grid number                                          1
 RS_GRID|   Bounds   1           -150     149                Points:         300
 RS_GRID|   Bounds   2           -150     149                Points:         300
 RS_GRID|   Bounds   3           -150     149                Points:         300
[...]
 COUNTER                                    TOTAL       BLAS       SMM       ACC
 flops     9 x    32 x     9                82944       0.0%    100.0%      0.0%     
 flops     9 x     9 x    23               111780       0.0%    100.0%      0.0%     
 flops    23 x    32 x     9               264960       0.0%    100.0%      0.0%     
 flops     9 x    32 x    23               264960       0.0%    100.0%      0.0%     
 flops     9 x    23 x    23               285660       0.0%    100.0%      0.0%     
 flops    23 x     9 x    23               285660       0.0%    100.0%      0.0%     
 flops     9 x     9 x    32               622080       0.0%    100.0%      0.0%     
 flops    23 x    32 x    23               846400       0.0%    100.0%      0.0%     
 flops    23 x    23 x    23              1095030       0.0%    100.0%      0.0%     
 flops     9 x    23 x    32              1589760       0.0%    100.0%      0.0%     
 flops    23 x     9 x    32              1589760       0.0%    100.0%      0.0%     
 flops    46 x    32 x    46              2166784       0.0%    100.0%      0.0%     
 flops    46 x    42 x    46              2843904       0.0%    100.0%      0.0%     
 flops    23 x    23 x    32              6094080       0.0%    100.0%      0.0%     
 flops    46 x    32 x   106              6241280       0.0%    100.0%      0.0%     
 flops   106 x    32 x    46              6241280       0.0%    100.0%      0.0%     
 flops    46 x    42 x   106              8191680       0.0%    100.0%      0.0%     
 flops   106 x    42 x    46              8191680       0.0%    100.0%      0.0%     
 flops   106 x    32 x   106             17977600       0.0%    100.0%      0.0%     
 flops   106 x    42 x   106             23595600       0.0%    100.0%      0.0%     
 flops    46 x    64 x    46             43335680       0.0%    100.0%      0.0%     
 flops   106 x    64 x    46            124825600       0.0%    100.0%      0.0%     
 flops    46 x    64 x   106            124825600       0.0%    100.0%      0.0%     
 flops   106 x    64 x   106            359552000       0.0%    100.0%      0.0%     
 flops inhomo. stacks                           0       0.0%      0.0%      0.0%
 flops total                       741.121762E+06       0.0%    100.0%      0.0%
 flops max/rank                     10.389098E+06       0.0%    100.0%      0.0%
 matmuls inhomo. stacks                         0       0.0%      0.0%      0.0%
 matmuls total                               1728       0.0%    100.0%      0.0%
 number of processed stacks                  1728       0.0%    100.0%      0.0%
 average stack size                                     0.0       1.0       0.0
 marketing flops                   731.272064E+06
 -------------------------------------------------------------------------------
 # multiplications                              5
 max memory usage/rank             713.240576E+06
 # max total images/rank                        1
 # max 3D layers                                1
 # MPI messages exchanged                   15840
 MPI messages size (bytes):
  total size                       104.194728E+06
  min size                           0.000000E+00
  max size                          89.888000E+03
  average size                       6.577950E+03
 MPI breakdown and total messages size (bytes):
             size <=      128                9801                        0
       128 < size <=     8192                3960                 14470632
      8192 < size <=    32768                 759                 16032896
     32768 < size <=   131072                1320                 73691200
    131072 < size <=  4194304                   0                        0
   4194304 < size <= 16777216                   0                        0
  16777216 < size                               0                        0
 -------------------------------------------------------------------------------
 -                                                                             -
 -                      DBCSR MESSAGE PASSING PERFORMANCE                      -
 -                                                                             -
 -------------------------------------------------------------------------------
 ROUTINE             CALLS      AVE VOLUME [Bytes]
 MP_Bcast               25                     12.
 MP_Allreduce          101                     21.
 MP_Alltoall       4554275                  53978.
 MP_ISend              240                   5080.
 MP_IRecv              240                   4290.
 -------------------------------------------------------------------------------

 -------------------------------------------------------------------------------
 -                                                                             -
 -                                DBM STATISTICS                               -
 -                                                                             -
 -------------------------------------------------------------------------------
    M  x    N  x    K                                          COUNT     PERCENT
  ???  x  ???  x  ???                                      292041750       4.13%
   ??  x  ???  x  ???                                      233633400       3.30%
  ???  x  ???  x   ??                                      233633400       3.30%
   ??  x   ??  x  ???                                      219255960       3.10%
  ???  x   ??  x   ??                                      219255960       3.10%
   ??  x   ??  x >999                                      202182750       2.86%
 >999  x   ??  x   ??                                      202182750       2.86%
   ??  x  ???  x   ??                                      186906720       2.64%
    ?  x   ??  x >999                                      161746200       2.29%
   ??  x    ?  x >999                                      161746200       2.29%
 >999  x    ?  x   ??                                      161746200       2.29%
 >999  x   ??  x    ?                                      161746200       2.29%
    ?  x    ?  x >999                                      129396960       1.83%
    ?  x   ??  x  ???                                      129396960       1.83%
   ??  x    ?  x  ???                                      129396960       1.83%
  ???  x    ?  x   ??                                      129396960       1.83%
  ???  x   ??  x    ?                                      129396960       1.83%
 >999  x    ?  x    ?                                      129396960       1.83%
    ?  x    ?  x  ???                                      103517568       1.46%
  ???  x    ?  x    ?                                      103517568       1.46%
  ???  x   ??  x  ???                                       71887200       1.02%
   ??  x   ??  x   ??                                       46007808       0.65%
    ?  x    ?  x    ?                                     3537389394      50.00%
 -------------------------------------------------------------------------------
 Memory consumption                            Number of allocations  Size [MiB]
 Host                                                             26          10
 -------------------------------------------------------------------------------

 -------------------------------------------------------------------------------
 -                                                                             -
 -                                GRID STATISTICS                              -
 -                                                                             -
 -------------------------------------------------------------------------------
 LP    KERNEL             BACKEND                              COUNT     PERCENT
 2     collocate general  CPU                                   3888      13.93%
 2     integrate general  CPU                                   3888      13.93%
 1     collocate ortho    CPU                                   3198      11.46%
 1     integrate ortho    CPU                                   3198      11.46%
 2     collocate ortho    CPU                                   2472       8.86%
 2     integrate ortho    CPU                                   2472       8.86%
 0     collocate ortho    CPU                                   1962       7.03%
 0     integrate ortho    CPU                                   1962       7.03%
 0     collocate general  CPU                                   1296       4.64%
 0     integrate general  CPU                                   1296       4.64%
 3     collocate ortho    CPU                                    960       3.44%
 3     integrate ortho    CPU                                    960       3.44%
 4     collocate ortho    CPU                                    180       0.64%
 4     integrate ortho    CPU                                    180       0.64%
 -------------------------------------------------------------------------------

 MEMORY| Estimated peak process memory [MiB]                                1291

 -------------------------------------------------------------------------------
 ----                             MULTIGRID INFO                            ----
 -------------------------------------------------------------------------------
 count for grid        1:        3647284          cutoff [a.u.]          300.00
 count for grid        2:         471555          cutoff [a.u.]          100.00
 count for grid        3:         381821          cutoff [a.u.]           33.33
 count for grid        4:         156776          cutoff [a.u.]           11.11
 total gridlevel count  :        4657436

 -------------------------------------------------------------------------------
 -                                                                             -
 -                         MESSAGE PASSING PERFORMANCE                         -
 -                                                                             -
 -------------------------------------------------------------------------------

 ROUTINE             CALLS      AVE VOLUME [Bytes]
 MP_Group          7368480
 MP_Bcast          3955685                     52.
 MP_Allreduce      8347859                     89.
 MP_Sync           5391572
 MP_Alltoall       3594461                   2121.
 MP_SendRecv           858                  38400.
 MP_ISendRecv         2002                  18563.
 MP_Wait           4316154
 MP_comm_split     3953812
 MP_ISend         11143356                  66840.
 MP_IRecv         13299972                  62969.
 -------------------------------------------------------------------------------


 -------------------------------------------------------------------------------
 -                                                                             -
 -                           R E F E R E N C E S                               -
 -                                                                             -
 -------------------------------------------------------------------------------
 
 CP2K version 2025.1 (Development Version), the CP2K developers group (2025).
 CP2K is freely available from https://www.cp2k.org/ .
 
 M. Graml, K. Zollner, D. Hernangmez-Prez, P. E. Faria Junior, J. Wilhelm.
 J. Chem. Theory Comput. 20, 2202-2208 (2024).
 Low-scaling GW algorithm applied to twisted transition-metal dichalcogenide 
 heterobilayers.
 https://doi.org/10.1021/acs.jctc.3c01230

 T. D. Kuehne, M. Iannuzzi, M. Del Ben, V. V. Rybkin, P. Seewald, F. Stein, T. 
 Laino, R. Z. Khaliullin, O. Schuett, F. Schiffmann, D. Golze, J. Wilhelm, S. 
 Chulkov, M. H. Bani-Hashemian, V. Weber, U. Borstnik, M. Taillefumier, A. S. 
 Jakobovits, A. Lazzaro, H. Pabst, T. Mueller, R. Schade, M. Guidon, S. 
 Andermatt, N. Holmberg, G. K. Schenter, A. Hehn, A. Bussy, F. Belleflamme, G. 
 Tabacchi, A. Gloess, M. Lass, I. Bethune, C. J. Mundy, C. Plessl, M. Watkins, 
 J. VandeVondele, M. Krack, J. Hutter.
 J. Chem. Phys. 152, 194103 (2020).
 CP2K: An electronic structure and molecular dynamics software package - 
 Quickstep: Efficient and accurate electronic structure calculations.
 https://doi.org/10.1063/5.0007045

 O. Schuett, P. Messmer, J. Hutter, J. VandeVondele.
 Electronic Structure Calculations on Graphics Processing Units, 173-190 (2016).
 GPU-Accelerated Sparse Matrix-Matrix Multiplication for Linear Scaling Density 
 Functional Theory.
 https://doi.org/10.1002/9781118670712.ch8

 A. Heinecke, G. Henry, M. Hutchinson, H. Pabst.
 Proceedings of Intl. Supercomputing Conference, 981-991 (2016).
 LIBXSMM: Accelerating Small Matrix Multiplications by Runtime Code Generation.
 https://doi.org/10.1109/SC.2016.83

 J. Hutter, M. Iannuzzi, F. Schiffmann, J. VandeVondele.
 WIREs Comput Mol Sci. 4, 15-25 (2014).
 CP2K: atomistic simulations of condensed matter systems.
 https://doi.org/10.1002/wcms.1159

 U. Borstnik, J. VandeVondele, V. Weber, J. Hutter.
 Parallel Comput. 40, 47-58 (2014).
 Sparse matrix multiplication: The distributed block-compressed sparse row 
 library.
 https://doi.org/10.1016/j.parco.2014.03.012

 M. Guidon, J. Hutter, J. VandeVondele.
 J. Chem. Theory Comput. 5, 3010-3021 (2009).
 Robust Periodic Hartree-Fock Exchange for Large-Scale Simulations Using 
 Gaussian Basis Sets.
 https://doi.org/10.1021/ct900494g

 M. Guidon, F. Schiffmann, J. Hutter, J. VandeVondele.
 J. Chem. Phys. 128, 214104 (2008).
 Ab initio molecular dynamics using hybrid density functionals.
 https://doi.org/10.1063/1.2931945

 L. Genovese, T. Deutsch, S. Goedecker.
 J. Chem. Phys. 127, 054704 (2007).
 Efficient and accurate three-dimensional Poisson solver for surface problems.
 https://doi.org/10.1063/1.2754685

 L. Genovese, T. Deutsch, A. Neelov, S. Goedecker, G. Beylkin.
 J. Chem. Phys. 125, 074105 (2006).
 Efficient solution of Poisson's equation with free boundary conditions.
 https://doi.org/10.1063/1.2335442

 M. Frigo, S. G. Johnson.
 Proc. IEEE 93, 216-231 (2005).
 The design and implementation of FFTW3.
 https://doi.org/10.1109/JPROC.2004.840301

 M. Krack, M. Parrinello.
 Phys. Chem. Chem. Phys. 2, 2105-2112 (2000).
 All-electron ab-initio molecular dynamics.
 https://doi.org/10.1039/b001167n

 G. Lippert, J. Hutter, M. Parrinello.
 Theor. Chem. Acc. 103, 124-140 (1999).
 The Gaussian and augmented-plane-wave density functional method for ab initio 
 molecular dynamics simulations.
 https://doi.org/10.1007/s002140050523

 J. P. Perdew, K. Burke, M. Ernzerhof.
 Phys. Rev. Lett. 77, 3865-3868 (1996).
 Generalized gradient approximation made simple.
 https://doi.org/10.1103/PhysRevLett.77.3865


 -------------------------------------------------------------------------------
 -                                                                             -
 -                                T I M I N G                                  -
 -                                                                             -
 -------------------------------------------------------------------------------
 SUBROUTINE                       CALLS  ASD         SELF TIME        TOTAL TIME
                                MAXIMUM       AVERAGE  MAXIMUM  AVERAGE  MAXIMUM
 CP2K                                 1  1.0     0.03     0.05 17223.20 17223.29
 run_propagation_bse                  1  2.0     1.53    12.04 17212.11 17222.89
 etrs_scf_loop                    20001  3.0     0.38     0.43 16943.82 16944.15
 update_effective_ham             59905  4.0     1.77     1.92 16433.74 16434.92
 get_sigma                       179718  5.0     3.91     4.26 16012.71 16013.57
 dbt_total                       539155  6.0     5.50     7.81 15630.60 15631.95
 dbt_contract                    539154  7.0    34.38    41.45 15433.64 15608.23
 dbt_tas_multiply               1078308  9.5     2.54     2.96 13342.43 13432.84
 dbt_tas_total                  1078308 10.5   135.97   163.38 13155.98 13157.25
 dbt_tas_dbm                    1078308 11.5     2.76     3.27  5414.67  5415.74
 dbm_multiply                   1078308 13.5  3992.67  5386.33  3992.67  5386.33
 mp_sync                        5391572 10.6  2712.41  3797.66  2712.41  3797.66
 dbt_tas_mm_3N                   359436 12.5     0.61     0.81  2417.04  3110.93
 dbm_redistribute               1617462 10.7  1747.56  2411.43  1747.56  2411.43
 convert_to_new_pgrid           3234924 11.5   598.63   930.15  1727.08  1974.60
 dbt_tas_estimate_result_nze     539154 10.0   197.58   342.86  1822.37  1823.30
 dbt_remap                       718872  8.0    84.75    89.40  1496.69  1663.65
 dbt_copy                        718873  8.5     4.01     4.44  1115.65  1563.27
 dbt_tas_mm_2                    359436 12.5     1.39     1.82  1547.38  1547.78
 dbt_reshape                     539154  9.7   653.36   968.79  1026.81  1410.89
 dbt_tas_create_split           3953806 12.4    12.68    14.62  1154.77  1233.14
 dbt_tas_create_split_rows_or_c 3953806 13.4    21.28    22.74  1142.09  1220.77
 dbt_tas_distribution_new       4672684 11.8   553.22   574.46  1091.06  1125.84
 dbt_tas_reshape                1437744 11.6    25.07    27.90   764.33  1084.14
 reshape_mm_compatible          1078308 11.5    25.38    29.04   951.46   999.59
 reshape_mm_small               1078308 11.5   117.53   124.49   929.84   995.29
 change_split                   1617462 12.0    11.77    13.77   873.72   920.97
 mp_sum_l                       5751434 11.7   552.17   879.66   552.17   879.66
 mp_cart_create                 7608182 12.7   714.21   831.37   722.64   838.85
 dbt_tas_replicate              1078308 11.5   206.89   326.30   659.17   743.35
 dbt_tas_mm_1N                   359436 12.5     0.61     0.76   609.56   738.73
 mp_waitall_2                   5750976 13.6   445.23   620.02   445.23   620.02
 mp_comm_dup                    3414656 14.7   484.72   564.22   488.37   567.92
 copy_dbcsr_to_fm                239700  6.0     3.36     3.62   493.54   508.91
 propagate_density                79907  4.0     0.12     0.14   475.61   478.16
 bch_propagate                    79907  5.0     3.66     4.49   475.49   478.06
 dbcsr_complete_redistribute     479395  6.6    20.25    23.17   467.73   469.46
 dbt_tas_reshape_buffer_obtain  1437744 12.6   253.53   362.33   330.10   465.93
 parallel_gemm_cfm              1757150  6.0     1.51     1.69   438.22   455.28
 parallel_gemm_cfm_gemm         1757150  7.0     1.53     1.73   436.71   453.83
 cp_cfm_gemm                    1757150  8.0   435.18   452.35   435.18   452.35
 dbt_distribution_new_expert    1437760  9.5    21.35    25.56   443.39   452.01
 dbt_communicate_buffer          539154 10.7     8.79    17.26   250.10   447.33
 dbt_tas_communicate_buffer     2516052 13.6    24.64    47.03   338.86   444.21
 mp_comm_split_direct           3953808 14.4   402.27   405.03   404.55   407.16
 dbm_reserve_blocks             5211828 13.6   244.47   401.84   244.47   401.84
 dbt_tas_copy                    718873 12.0   141.03   216.08   243.31   395.25
 dbt_tas_reserve_blocks_index   4133520 12.9    10.70    19.21   233.18   392.12
 dbt_pgrid_create_expert        1437764 10.5     3.64     4.37   298.59   380.03
 mp_alltoall_i                  3594362 12.7   282.95   364.78   282.95   364.78
 -------------------------------------------------------------------------------

 The number of warnings for this run is : 3
 
 -------------------------------------------------------------------------------
  **** **** ******  **  PROGRAM ENDED AT                 2025-02-10 23:03:35.187
 ***** ** ***  *** **   PROGRAM RAN ON                              i04r03c04s08
 **    ****   ******    PROGRAM RAN BY                                   di75qec
 ***** **    ** ** **   PROGRAM PROCESS ID                               2565745
  **** **  *******  **  PROGRAM STOPPED IN /hppfs/scratch/09/di75qec/Furan_rtbse
                                           _x_7.4280782
