 DBCSR| CPU Multiplication driver                                           XSMM (U)
 DBCSR| Multrec recursion limit                                              512 (U)
 DBCSR| Multiplication stack size                                           1000 (D)
 DBCSR| Maximum elements for images                                    UNLIMITED (U)
 DBCSR| Multiplicative factor virtual images                                   1 (U)
 DBCSR| Use multiplication densification                                       T (D)
 DBCSR| Multiplication size stacks                                             3 (U)
 DBCSR| Use memory pool for CPU allocation                                     F (U)
 DBCSR| Number of 3D layers                                               SINGLE (U)
 DBCSR| Use MPI memory allocation                                              F (U)
 DBCSR| Use RMA algorithm                                                      F (U)
 DBCSR| Use Communication thread                                               T (U)
 DBCSR| Communication thread load                                             79 (D)
 DBCSR| MPI: My process id                                                     0
 DBCSR| MPI: Number of processes                                              16
 DBCSR| OMP: Current number of threads                                         3
 DBCSR| OMP: Max number of threads                                             3
 DBCSR| Split modifier for TAS multiplication algorithm                  1.0E+00 (U)


  **** **** ******  **  PROGRAM STARTED AT               2025-02-20 17:04:17.212
 ***** ** ***  *** **   PROGRAM STARTED ON                          i03r08c04s11
 **    ****   ******    PROGRAM STARTED BY                               di75qec
 ***** **    ** ** **   PROGRAM PROCESS ID                               1848413
  **** **  *******  **  PROGRAM STARTED IN /hppfs/scratch/09/di75qec/Hexatriene_
                                           rtbse_x_9.4317987

 CP2K| version string:                 CP2K version 2025.1 (Development Version)
 CP2K| source code revision number:                                  git:d9f5bf2
 CP2K| cp2kflags: omp libint fftw3 libxc parallel scalapack xsmm max_contr=4    
 CP2K| is freely available from                            https://www.cp2k.org/
 CP2K| Program compiled at                       Thu 20 Feb 2025 03:48:46 PM CET
 CP2K| Program compiled on                                               login02
 CP2K| Program compiled for                                        Supermuc-foss
 CP2K| Data directory path               /dss/dsshome1/09/di75qec/CP2K-foss/data
 CP2K| Input file name                                                 rtbse.inp

 GLOBAL| Force Environment number                                              1
 GLOBAL| Basis set file name                                         aug-cc-pvdz
 GLOBAL| Potential file name                                      ALL_POTENTIALS
 GLOBAL| MM Potential file name                                     MM_POTENTIAL
 GLOBAL| Coordinate file name                                          coord.xyz
 GLOBAL| Method name                                                        CP2K
 GLOBAL| Project name                                                 Hexatriene
 GLOBAL| Run type                                                 RT_PROPAGATION
 GLOBAL| FFT library                                                       FFTW3
 GLOBAL| Diagonalization library                                       ScaLAPACK
 GLOBAL| DGEMM library                                                      BLAS
 GLOBAL| Orthonormality check for eigenvectors                          DISABLED
 GLOBAL| Matrix multiplication library                                 ScaLAPACK
 GLOBAL| All-to-all communication in single precision                          F
 GLOBAL| FFTs using library dependent lengths                                  F
 GLOBAL| Grid backend                                                       AUTO
 GLOBAL| Global print level                                               MEDIUM
 GLOBAL| MPI I/O enabled                                                       T
 GLOBAL| Total number of message passing processes                            16
 GLOBAL| Number of threads for this process                                    3
 GLOBAL| This output is from process                                           0
 GLOBAL| OpenMP stack size per thread (OMP_STACKSIZE)                    default
 GLOBAL| CPU model name             Intel(R) Xeon(R) Platinum 8174 CPU @ 3.10GHz
 GLOBAL| CPUID                                                              1003
 GLOBAL| Compiled for CPUID                                                    0

 *** HINT in environment.F:928 :: The compiler target flags (generic) used ***
 *** to build this binary cannot exploit all extensions of this CPU model  ***
 *** (x86_avx512). Consider compiler target flags as part of FCFLAGS and   ***
 *** CFLAGS (ARCH file).                                                   ***


 MEMORY| system memory details [Kb]
 MEMORY|                        rank 0           min           max       average
 MEMORY| MemTotal             98436664      98436664      98436664      98436664
 MEMORY| MemFree              84221240      84221240      84221240      84221240
 MEMORY| Buffers                     0             0             0             0
 MEMORY| Cached                2344220       2344220       2344220       2344220
 MEMORY| Slab                  1217280       1217280       1217280       1217280
 MEMORY| SReclaimable           278240        278240        278240        278240
 MEMORY| MemLikelyFree        86843700      86843700      86843700      86843700


 *** Fundamental physical constants (SI units) ***

 *** Literature: B. J. Mohr and B. N. Taylor,
 ***             CODATA recommended values of the fundamental physical
 ***             constants: 2006, Web Version 5.1
 ***             http://physics.nist.gov/constants

 Speed of light in vacuum [m/s]                             2.99792458000000E+08
 Magnetic constant or permeability of vacuum [N/A**2]       1.25663706143592E-06
 Electric constant or permittivity of vacuum [F/m]          8.85418781762039E-12
 Planck constant (h) [J*s]                                  6.62606896000000E-34
 Planck constant (h-bar) [J*s]                              1.05457162825177E-34
 Elementary charge [C]                                      1.60217648700000E-19
 Electron mass [kg]                                         9.10938215000000E-31
 Electron g factor [ ]                                     -2.00231930436220E+00
 Proton mass [kg]                                           1.67262163700000E-27
 Fine-structure constant                                    7.29735253760000E-03
 Rydberg constant [1/m]                                     1.09737315685270E+07
 Avogadro constant [1/mol]                                  6.02214179000000E+23
 Boltzmann constant [J/K]                                   1.38065040000000E-23
 Atomic mass unit [kg]                                      1.66053878200000E-27
 Bohr radius [m]                                            5.29177208590000E-11

 *** Conversion factors ***

 [u] -> [a.u.]                                              1.82288848426455E+03
 [Angstrom] -> [Bohr] = [a.u.]                              1.88972613288564E+00
 [a.u.] = [Bohr] -> [Angstrom]                              5.29177208590000E-01
 [a.u.] -> [s]                                              2.41888432650478E-17
 [a.u.] -> [fs]                                             2.41888432650478E-02
 [a.u.] -> [J]                                              4.35974393937059E-18
 [a.u.] -> [N]                                              8.23872205491840E-08
 [a.u.] -> [K]                                              3.15774647902944E+05
 [a.u.] -> [kJ/mol]                                         2.62549961709828E+03
 [a.u.] -> [kcal/mol]                                       6.27509468713739E+02
 [a.u.] -> [Pa]                                             2.94210107994716E+13
 [a.u.] -> [bar]                                            2.94210107994716E+08
 [a.u.] -> [atm]                                            2.90362800883016E+08
 [a.u.] -> [eV]                                             2.72113838565563E+01
 [a.u.] -> [Hz]                                             6.57968392072181E+15
 [a.u.] -> [1/cm] (wave numbers)                            2.19474631370540E+05
 [a.u./Bohr**2] -> [1/cm]                                   5.14048714338585E+03
 

 CELL_TOP| Volume [angstrom^3]:                                      8000.000000
 CELL_TOP| Vector a [angstrom    20.000     0.000     0.000   |a| =    20.000000
 CELL_TOP| Vector b [angstrom     0.000    20.000     0.000   |b| =    20.000000
 CELL_TOP| Vector c [angstrom     0.000     0.000    20.000   |c| =    20.000000
 CELL_TOP| Angle (b,c), alpha [degree]:                                90.000000
 CELL_TOP| Angle (a,c), beta  [degree]:                                90.000000
 CELL_TOP| Angle (a,b), gamma [degree]:                                90.000000
 CELL_TOP| Numerically orthorhombic:                                         YES
 CELL_TOP| Periodicity                                                      NONE

 GENERATE|  Preliminary Number of Bonds generated:                             0
 GENERATE|  Achieved consistency in connectivity generation.

 CELL| Volume [angstrom^3]:                                          8000.000000
 CELL| Vector a [angstrom]:      20.000     0.000     0.000   |a| =    20.000000
 CELL| Vector b [angstrom]:       0.000    20.000     0.000   |b| =    20.000000
 CELL| Vector c [angstrom]:       0.000     0.000    20.000   |c| =    20.000000
 CELL| Angle (b,c), alpha [degree]:                                    90.000000
 CELL| Angle (a,c), beta  [degree]:                                    90.000000
 CELL| Angle (a,b), gamma [degree]:                                    90.000000
 CELL| Numerically orthorhombic:                                             YES
 CELL| Periodicity                                                          NONE

 CELL_REF| Volume [angstrom^3]:                                      8000.000000
 CELL_REF| Vector a [angstrom    20.000     0.000     0.000   |a| =    20.000000
 CELL_REF| Vector b [angstrom     0.000    20.000     0.000   |b| =    20.000000
 CELL_REF| Vector c [angstrom     0.000     0.000    20.000   |c| =    20.000000
 CELL_REF| Angle (b,c), alpha [degree]:                                90.000000
 CELL_REF| Angle (a,c), beta  [degree]:                                90.000000
 CELL_REF| Angle (a,b), gamma [degree]:                                90.000000
 CELL_REF| Numerically orthorhombic:                                         YES
 CELL_REF| Periodicity                                                      NONE

 *******************************************************************************
 *******************************************************************************
 **                                                                           **
 **     #####                         ##              ##                      **
 **    ##   ##            ##          ##              ##                      **
 **   ##     ##                       ##            ######                    **
 **   ##     ##  ##   ##  ##   #####  ##  ##   ####   ##    #####    #####    **
 **   ##     ##  ##   ##  ##  ##      ## ##   ##      ##   ##   ##  ##   ##   **
 **   ##  ## ##  ##   ##  ##  ##      ####     ###    ##   ######   ######    **
 **    ##  ###   ##   ##  ##  ##      ## ##      ##   ##   ##       ##        **
 **     #######   #####   ##   #####  ##  ##  ####    ##    #####   ##        **
 **           ##                                                    ##        **
 **                                                                           **
 **                                                ... make the atoms dance   **
 **                                                                           **
 **            Copyright (C) by CP2K developers group (2000-2025)             **
 **                      J. Chem. Phys. 152, 194103 (2020)                    **
 **                                                                           **
 *******************************************************************************

 DFT| Spin restricted Kohn-Sham (RKS) calculation                            RKS
 DFT| Multiplicity                                                             1
 DFT| Number of spin states                                                    1
 DFT| Charge                                                                   0
 DFT| Self-interaction correction (SIC)                                       NO
 DFT| Cutoffs: density                                              1.000000E-10
 DFT|          gradient                                             1.000000E-10
 DFT|          tau                                                  1.000000E-10
 DFT|          cutoff_smoothing_range                               0.000000E+00
 DFT| XC density smoothing                                                  NONE
 DFT| XC derivatives                                                          PW

 FUNCTIONAL| PBE:
 FUNCTIONAL| J.P.Perdew, K.Burke, M.Ernzerhof, Phys. Rev. Letter, vol. 77, n 18,
 FUNCTIONAL|  pp. 3865-3868, (1996)sx=0.750sc=1.000{spin unpolarized}           


 QS| Method:                                                                GAPW
 QS| Density plane wave grid type                        NON-SPHERICAL FULLSPACE
 QS| Number of grid levels:                                                    4
 QS| Density cutoff [a.u.]:                                                300.0
 QS| Multi grid cutoff [a.u.]: 1) grid level                               300.0
 QS|                           2) grid level                               100.0
 QS|                           3) grid level                                33.3
 QS|                           4) grid level                                11.1
 QS| Grid level progression factor:                                          3.0
 QS| Relative density cutoff [a.u.]:                                        30.0
 QS| Interaction thresholds: eps_pgf_orb:                                1.0E-05
 QS|                         eps_filter_matrix:                          0.0E+00
 QS|                         eps_core_charge:                            1.0E-12
 QS|                         eps_rho_gspace:                             1.0E-10
 QS|                         eps_rho_rspace:                             1.0E-10
 QS|                         eps_gvg_rspace:                             1.0E-05
 QS|                         eps_ppl:                                    1.0E-02
 QS|                         eps_ppnl:                                   1.0E-07
 QS| GAPW|      One center basis from orbital basis primitives
 QS| GAPW|                   eps_fit:                                    1.0E-04
 QS| GAPW|                   eps_iso:                                    1.0E-12
 QS| GAPW|                   eps_svd:                                    1.0E-08
 QS| GAPW|                   eps_cpc:                                    1.0E-10
 QS| GAPW|   atom-r-grid: quadrature:                                     GC_LOG
 QS| GAPW|      atom-s-grid:  max l :                                          4
 QS| GAPW|      max_l_rho0 :                                                   2


 ATOMIC KIND INFORMATION

  1. Atomic kind: H                                     Number of atoms:       8

     Orbital Basis Set                                               aug-cc-pvdz

       Number of orbital shell sets:                                           4
       Number of orbital shells:                                               5
       Number of primitive Cartesian functions:                                7
       Number of Cartesian basis functions:                                    9
       Number of spherical basis functions:                                    9
       Norm type:                                                              2

       Normalised Cartesian orbitals:

                        Set   Shell   Orbital            Exponent    Coefficient

                          1       1    1s               13.010000       0.096107
                                                         1.962000       0.163020
                                                         0.444600       0.185545
                                                         0.122000       0.073744

                          1       2    2s               13.010000       0.000000
                                                         1.962000       0.000000
                                                         0.444600       0.000000
                                                         0.122000       0.147123

                          2       1    1s                0.029740       0.051041

                          3       1    1px               0.727000       0.956881
                          3       1    1py               0.727000       0.956881
                          3       1    1pz               0.727000       0.956881

                          4       1    1px               0.141000       0.123158
                          4       1    1py               0.141000       0.123158
                          4       1    1pz               0.141000       0.123158

     RI Auxiliary Basis Set                                    aug-cc-pvtz-rifit

       Number of orbital shell sets:                                          14
       Number of orbital shells:                                              14
       Number of primitive Cartesian functions:                               14
       Number of Cartesian basis functions:                                   55
       Number of spherical basis functions:                                   46
       Norm type:                                                              2

       Normalised Cartesian orbitals:

                        Set   Shell   Orbital            Exponent    Coefficient

                          1       1    1s                8.512828       3.551939

                          2       1    1s                1.873089       1.141114

                          3       1    1s                0.526184       0.440315

                          4       1    1s                0.289740       0.281460

                          5       1    1s                0.127194       0.151796

                          6       1    1px               2.372549       4.197195
                          6       1    1py               2.372549       4.197195
                          6       1    1pz               2.372549       4.197195

                          7       1    1px               1.180408       1.753802
                          7       1    1py               1.180408       1.753802
                          7       1    1pz               1.180408       1.753802

                          8       1    1px               0.603822       0.758711
                          8       1    1py               0.603822       0.758711
                          8       1    1pz               0.603822       0.758711

                          9       1    1px               0.235513       0.233861
                          9       1    1py               0.235513       0.233861
                          9       1    1pz               0.235513       0.233861

                         10       1    1dx2              1.809637       4.647235
                         10       1    1dxy              1.809637       8.049248
                         10       1    1dxz              1.809637       8.049248
                         10       1    1dy2              1.809637       4.647235
                         10       1    1dyz              1.809637       8.049248
                         10       1    1dz2              1.809637       4.647235

                         11       1    1dx2              1.143973       2.082748
                         11       1    1dxy              1.143973       3.607426
                         11       1    1dxz              1.143973       3.607426
                         11       1    1dy2              1.143973       2.082748
                         11       1    1dyz              1.143973       3.607426
                         11       1    1dz2              1.143973       2.082748

                         12       1    1dx2              0.436654       0.386056
                         12       1    1dxy              0.436654       0.668668
                         12       1    1dxz              0.436654       0.668668
                         12       1    1dy2              0.436654       0.386056
                         12       1    1dyz              0.436654       0.668668
                         12       1    1dz2              0.436654       0.386056

                         13       1    1fx3              1.806306       5.568458
                         13       1    1fx2y             1.806306      12.451451
                         13       1    1fx2z             1.806306      12.451451
                         13       1    1fxy2             1.806306      12.451451
                         13       1    1fxyz             1.806306      21.566546
                         13       1    1fxz2             1.806306      12.451451
                         13       1    1fy3              1.806306       5.568458
                         13       1    1fy2z             1.806306      12.451451
                         13       1    1fyz2             1.806306      12.451451
                         13       1    1fz3              1.806306       5.568458

                         14       1    1fx3              0.252978       0.066817
                         14       1    1fx2y             0.252978       0.149408
                         14       1    1fx2z             0.252978       0.149408
                         14       1    1fxy2             0.252978       0.149408
                         14       1    1fxyz             0.252978       0.258783
                         14       1    1fxz2             0.252978       0.149408
                         14       1    1fy3              0.252978       0.066817
                         14       1    1fy2z             0.252978       0.149408
                         14       1    1fyz2             0.252978       0.149408
                         14       1    1fz3              0.252978       0.066817

       Atomic covalent radius [Angstrom]:                                  0.320

       Atomic van der Waals radius [Angstrom]:                             1.090

     The atoms of this atomic kind are PAW atoms (GAPW):
       Hard Gaussian function radius:                                      1.200
       Rho0 radius:                                                        1.200
       Maximum GTO radius used for PAW projector construction:            24.566

     GAPW Soft Basis Set                                        aug-cc-pvdz_soft

       Number of orbital shell sets:                                           4
       Number of orbital shells:                                               5
       Number of primitive Cartesian functions:                                6
       Number of Cartesian basis functions:                                    9
       Number of spherical basis functions:                                    9
       Norm type:                                                              2

       Normalised Cartesian orbitals:

                        Set   Shell   Orbital            Exponent    Coefficient

                          1       1    1s                1.962000       0.163020
                                                         0.444600       0.185545
                                                         0.122000       0.073744

                          1       2    2s                1.962000       0.000000
                                                         0.444600       0.000000
                                                         0.122000       0.147123

                          2       1    1s                0.029740       0.051041

                          3       1    1px               0.727000       0.956881
                          3       1    1py               0.727000       0.956881
                          3       1    1pz               0.727000       0.956881

                          4       1    1px               0.141000       0.123158
                          4       1    1py               0.141000       0.123158
                          4       1    1pz               0.141000       0.123158

     AE Potential information for                                            ALL

       Description:                                       All-electron potential
                                          Krack, Parrinello, PCCP 2, 2105 (2000)

       Gaussian exponent of the core charge distribution:              12.500000
       Electronic configuration (s p d ...):                           1   0   0

  2. Atomic kind: C                                     Number of atoms:       6

     Orbital Basis Set                                               aug-cc-pvdz

       Number of orbital shell sets:                                           6
       Number of orbital shells:                                               9
       Number of primitive Cartesian functions:                               17
       Number of Cartesian basis functions:                                   25
       Number of spherical basis functions:                                   23
       Norm type:                                                              2

       Normalised Cartesian orbitals:

                        Set   Shell   Orbital            Exponent    Coefficient

                          1       1    1s             6665.000000       0.363803
                                                      1000.000000       0.675392
                                                       228.000000       1.132301
                                                        64.710000       1.654004
                                                        21.060000       1.924978
                                                         7.495000       1.448149
                                                         2.797000       0.439427
                                                         0.521500       0.006650
                                                         0.159600      -0.000574

                          1       2    2s             6665.000000      -0.076756
                                                      1000.000000      -0.146257
                                                       228.000000      -0.239407
                                                        64.710000      -0.379069
                                                        21.060000      -0.448104
                                                         7.495000      -0.484201
                                                         2.797000      -0.196168
                                                         0.521500       0.238162
                                                         0.159600       0.104468

                          1       3    3s             6665.000000       0.000000
                                                      1000.000000       0.000000
                                                       228.000000       0.000000
                                                        64.710000       0.000000
                                                        21.060000       0.000000
                                                         7.495000       0.000000
                                                         2.797000       0.000000
                                                         0.521500       0.000000
                                                         0.159600       0.179964

                          2       1    1s                0.046900       0.071827

                          3       1    1px               9.439000       0.898722
                                                         2.002000       0.711071
                                                         0.545600       0.339917
                                                         0.151700       0.063270
                          3       1    1py               9.439000       0.898722
                                                         2.002000       0.711071
                                                         0.545600       0.339917
                                                         0.151700       0.063270
                          3       1    1pz               9.439000       0.898722
                                                         2.002000       0.711071
                                                         0.545600       0.339917
                                                         0.151700       0.063270

                          3       2    2px               9.439000       0.000000
                                                         2.002000       0.000000
                                                         0.545600       0.000000
                                                         0.151700       0.134950
                          3       2    2py               9.439000       0.000000
                                                         2.002000       0.000000
                                                         0.545600       0.000000
                                                         0.151700       0.134950
                          3       2    2pz               9.439000       0.000000
                                                         2.002000       0.000000
                                                         0.545600       0.000000
                                                         0.151700       0.134950

                          4       1    1px               0.040410       0.025826
                          4       1    1py               0.040410       0.025826
                          4       1    1pz               0.040410       0.025826

                          5       1    1dx2              0.550000       0.578155
                          5       1    1dxy              0.550000       1.001394
                          5       1    1dxz              0.550000       1.001394
                          5       1    1dy2              0.550000       0.578155
                          5       1    1dyz              0.550000       1.001394
                          5       1    1dz2              0.550000       0.578155

                          6       1    1dx2              0.151000       0.060203
                          6       1    1dxy              0.151000       0.104275
                          6       1    1dxz              0.151000       0.104275
                          6       1    1dy2              0.151000       0.060203
                          6       1    1dyz              0.151000       0.104275
                          6       1    1dz2              0.151000       0.060203

     RI Auxiliary Basis Set                                    aug-cc-pvtz-rifit

       Number of orbital shell sets:                                          28
       Number of orbital shells:                                              28
       Number of primitive Cartesian functions:                               28
       Number of Cartesian basis functions:                                  136
       Number of spherical basis functions:                                  106
       Norm type:                                                              2

       Normalised Cartesian orbitals:

                        Set   Shell   Orbital            Exponent    Coefficient

                          1       1    1s              280.556612      48.856851

                          2       1    1s               60.230247      15.408880

                          3       1    1s               22.116651       7.268581

                          4       1    1s                6.862093       3.021708

                          5       1    1s                1.562255       0.995919

                          6       1    1s                0.912450       0.665376

                          7       1    1s                0.502749       0.425524

                          8       1    1s                0.215823       0.225675

                          9       1    1s                0.101536       0.128196

                         10       1    1px              24.231865      76.634379
                         10       1    1py              24.231865      76.634379
                         10       1    1pz              24.231865      76.634379

                         11       1    1px               6.476451      14.726905
                         11       1    1py               6.476451      14.726905
                         11       1    1pz               6.476451      14.726905

                         12       1    1px               2.129088       3.665914
                         12       1    1py               2.129088       3.665914
                         12       1    1pz               2.129088       3.665914

                         13       1    1px               1.037564       1.492652
                         13       1    1py               1.037564       1.492652
                         13       1    1pz               1.037564       1.492652

                         14       1    1px               0.549413       0.674238
                         14       1    1py               0.549413       0.674238
                         14       1    1pz               0.549413       0.674238

                         15       1    1px               0.281527       0.292307
                         15       1    1py               0.281527       0.292307
                         15       1    1pz               0.281527       0.292307

                         16       1    1px               0.115060       0.095520
                         16       1    1py               0.115060       0.095520
                         16       1    1pz               0.115060       0.095520

                         17       1    1dx2              9.718981      88.053322
                         17       1    1dxy              9.718981     152.512828
                         17       1    1dxz              9.718981     152.512828
                         17       1    1dy2              9.718981      88.053322
                         17       1    1dyz              9.718981     152.512828
                         17       1    1dz2              9.718981      88.053322

                         18       1    1dx2              3.035148      11.487463
                         18       1    1dxy              3.035148      19.896869
                         18       1    1dxz              3.035148      19.896869
                         18       1    1dy2              3.035148      11.487463
                         18       1    1dyz              3.035148      19.896869
                         18       1    1dz2              3.035148      11.487463

                         19       1    1dx2              1.467774       3.221535
                         19       1    1dxy              1.467774       5.579863
                         19       1    1dxz              1.467774       5.579863
                         19       1    1dy2              1.467774       3.221535
                         19       1    1dyz              1.467774       5.579863
                         19       1    1dz2              1.467774       3.221535

                         20       1    1dx2              0.573708       0.622471
                         20       1    1dxy              0.573708       1.078151
                         20       1    1dxz              0.573708       1.078151
                         20       1    1dy2              0.573708       0.622471
                         20       1    1dyz              0.573708       1.078151
                         20       1    1dz2              0.573708       0.622471

                         21       1    1dx2              0.290556       0.189261
                         21       1    1dxy              0.290556       0.327810
                         21       1    1dxz              0.290556       0.327810
                         21       1    1dy2              0.290556       0.189261
                         21       1    1dyz              0.290556       0.327810
                         21       1    1dz2              0.290556       0.189261

                         22       1    1dx2              0.148905       0.058749
                         22       1    1dxy              0.148905       0.101756
                         22       1    1dxz              0.148905       0.101756
                         22       1    1dy2              0.148905       0.058749
                         22       1    1dyz              0.148905       0.101756
                         22       1    1dz2              0.148905       0.058749

                         23       1    1fx3              2.275620       9.363300
                         23       1    1fx2y             2.275620      20.936975
                         23       1    1fx2z             2.275620      20.936975
                         23       1    1fxy2             2.275620      20.936975
                         23       1    1fxyz             2.275620      36.263904
                         23       1    1fxz2             2.275620      20.936975
                         23       1    1fy3              2.275620       9.363300
                         23       1    1fy2z             2.275620      20.936975
                         23       1    1fyz2             2.275620      20.936975
                         23       1    1fz3              2.275620       9.363300

                         24       1    1fx3              1.196890       2.205852
                         24       1    1fx2y             1.196890       4.932435
                         24       1    1fx2z             1.196890       4.932435
                         24       1    1fxy2             1.196890       4.932435
                         24       1    1fxyz             1.196890       8.543228
                         24       1    1fxz2             1.196890       4.932435
                         24       1    1fy3              1.196890       2.205852
                         24       1    1fy2z             1.196890       4.932435
                         24       1    1fyz2             1.196890       4.932435
                         24       1    1fz3              1.196890       2.205852

                         25       1    1fx3              0.541575       0.370413
                         25       1    1fx2y             0.541575       0.828268
                         25       1    1fx2z             0.541575       0.828268
                         25       1    1fxy2             0.541575       0.828268
                         25       1    1fxyz             0.541575       1.434603
                         25       1    1fxz2             0.541575       0.828268
                         25       1    1fy3              0.541575       0.370413
                         25       1    1fy2z             0.541575       0.828268
                         25       1    1fyz2             0.541575       0.828268
                         25       1    1fz3              0.541575       0.370413

                         26       1    1fx3              0.201793       0.040178
                         26       1    1fx2y             0.201793       0.089842
                         26       1    1fx2z             0.201793       0.089842
                         26       1    1fxy2             0.201793       0.089842
                         26       1    1fxyz             0.201793       0.155610
                         26       1    1fxz2             0.201793       0.089842
                         26       1    1fy3              0.201793       0.040178
                         26       1    1fy2z             0.201793       0.089842
                         26       1    1fyz2             0.201793       0.089842
                         26       1    1fz3              0.201793       0.040178

                         27       1    1gx4              1.216610       1.908103
                         27       1    1gx3y             1.216610       5.048367
                         27       1    1gx3z             1.216610       5.048367
                         27       1    1gx2y2            1.216610       6.517414
                         27       1    1gx2yz            1.216610      11.288491
                         27       1    1gx2z2            1.216610       6.517414
                         27       1    1gxy3             1.216610       5.048367
                         27       1    1gxy2z            1.216610      11.288491
                         27       1    1gxyz2            1.216610      11.288491
                         27       1    1gxz3             1.216610       5.048367
                         27       1    1gy4              1.216610       1.908103
                         27       1    1gy3z             1.216610       5.048367
                         27       1    1gy2z2            1.216610       6.517414
                         27       1    1gyz3             1.216610       5.048367
                         27       1    1gz4              1.216610       1.908103

                         28       1    1gx4              0.435998       0.113505
                         28       1    1gx3y             0.435998       0.300307
                         28       1    1gx3z             0.435998       0.300307
                         28       1    1gx2y2            0.435998       0.387695
                         28       1    1gx2yz            0.435998       0.671507
                         28       1    1gx2z2            0.435998       0.387695
                         28       1    1gxy3             0.435998       0.300307
                         28       1    1gxy2z            0.435998       0.671507
                         28       1    1gxyz2            0.435998       0.671507
                         28       1    1gxz3             0.435998       0.300307
                         28       1    1gy4              0.435998       0.113505
                         28       1    1gy3z             0.435998       0.300307
                         28       1    1gy2z2            0.435998       0.387695
                         28       1    1gyz3             0.435998       0.300307
                         28       1    1gz4              0.435998       0.113505

       Atomic covalent radius [Angstrom]:                                  0.770

       Atomic van der Waals radius [Angstrom]:                             1.700

     The atoms of this atomic kind are PAW atoms (GAPW):
       Hard Gaussian function radius:                                      1.512
       Rho0 radius:                                                        1.512
       Maximum GTO radius used for PAW projector construction:            24.566

     GAPW Soft Basis Set                                        aug-cc-pvdz_soft

       Number of orbital shell sets:                                           6
       Number of orbital shells:                                               9
       Number of primitive Cartesian functions:                               10
       Number of Cartesian basis functions:                                   25
       Number of spherical basis functions:                                   23
       Norm type:                                                              2

       Normalised Cartesian orbitals:

                        Set   Shell   Orbital            Exponent    Coefficient

                          1       1    1s                2.797000       0.439427
                                                         0.521500       0.006650
                                                         0.159600      -0.000574

                          1       2    2s                2.797000      -0.196168
                                                         0.521500       0.238162
                                                         0.159600       0.104468

                          1       3    3s                2.797000       0.000000
                                                         0.521500       0.000000
                                                         0.159600       0.179964

                          2       1    1s                0.046900       0.071827

                          3       1    1px               2.002000       0.711071
                                                         0.545600       0.339917
                                                         0.151700       0.063270
                          3       1    1py               2.002000       0.711071
                                                         0.545600       0.339917
                                                         0.151700       0.063270
                          3       1    1pz               2.002000       0.711071
                                                         0.545600       0.339917
                                                         0.151700       0.063270

                          3       2    2px               2.002000       0.000000
                                                         0.545600       0.000000
                                                         0.151700       0.134950
                          3       2    2py               2.002000       0.000000
                                                         0.545600       0.000000
                                                         0.151700       0.134950
                          3       2    2pz               2.002000       0.000000
                                                         0.545600       0.000000
                                                         0.151700       0.134950

                          4       1    1px               0.040410       0.025826
                          4       1    1py               0.040410       0.025826
                          4       1    1pz               0.040410       0.025826

                          5       1    1dx2              0.550000       0.578155
                          5       1    1dxy              0.550000       1.001394
                          5       1    1dxz              0.550000       1.001394
                          5       1    1dy2              0.550000       0.578155
                          5       1    1dyz              0.550000       1.001394
                          5       1    1dz2              0.550000       0.578155

                          6       1    1dx2              0.151000       0.060203
                          6       1    1dxy              0.151000       0.104275
                          6       1    1dxz              0.151000       0.104275
                          6       1    1dy2              0.151000       0.060203
                          6       1    1dyz              0.151000       0.104275
                          6       1    1dz2              0.151000       0.060203

     AE Potential information for                                            ALL

       Description:                                       All-electron potential
                                          Krack, Parrinello, PCCP 2, 2105 (2000)

       Gaussian exponent of the core charge distribution:               4.109048
       Electronic configuration (s p d ...):                           4   2   0


 MOLECULE KIND INFORMATION


 All atoms are their own molecule, skipping detailed information


 TOTAL NUMBERS AND MAXIMUM NUMBERS

  Total number of            - Atomic kinds:                                   2
                             - Atoms:                                         14
                             - Shell sets:                                    68
                             - Shells:                                        94
                             - Primitive Cartesian functions:                158
                             - Cartesian basis functions:                    222
                             - Spherical basis functions:                    210

  Maximum angular momentum of the orbital basis functions:                     2


 MODULE QUICKSTEP: ATOMIC COORDINATES IN ANGSTROM

   Atom Kind Element         X             Y             Z       Z(eff)     Mass
      1    1 H     1      9.046223     11.207691     10.000000   1.0000   1.0079
      2    1 H     1     10.953777      8.792309     10.000000   1.0000   1.0079
      3    1 H     1     12.155816     10.952317     10.000000   1.0000   1.0079
      4    1 H     1      7.844184      9.047683     10.000000   1.0000   1.0079
      5    1 H     1     12.125769     13.402692     10.000000   1.0000   1.0079
      6    1 H     1      7.874231      6.597308     10.000000   1.0000   1.0079
      7    1 H     1     10.275642     13.397162     10.000000   1.0000   1.0079
      8    1 H     1      9.724358      6.602838     10.000000   1.0000   1.0079
      9    2 C     6     10.000000     10.676808     10.000000   6.0000  12.0107
     10    2 C     6     10.000000      9.323192     10.000000   6.0000  12.0107
     11    2 C     6     11.204938     11.485654     10.000000   6.0000  12.0107
     12    2 C     6      8.795062      8.514346     10.000000   6.0000  12.0107
     13    2 C     6     11.203567     12.831663     10.000000   6.0000  12.0107
     14    2 C     6      8.796433      7.168337     10.000000   6.0000  12.0107



 SCF PARAMETERS         Density guess:                                   RESTART
                        --------------------------------------------------------
                        max_scf:                                             200
                        max_scf_history:                                       0
                        max_diis:                                              4
                        --------------------------------------------------------
                        eps_scf:                                        1.00E-09
                        eps_scf_history:                                0.00E+00
                        eps_diis:                                       1.00E-01
                        eps_eigval:                                     1.00E-05
                        --------------------------------------------------------
                        level_shift [a.u.]:                             0.000000
                        added MOs                                       188    0
                        --------------------------------------------------------
                        Mixing method:                            BROYDEN_MIXING
                                                charge density mixing in g-space
                        --------------------------------------------------------
                        No outer SCF

 PW_GRID| Information for grid number                                          1
 PW_GRID| Grid distributed over                                    16 processors
 PW_GRID| Real space group dimensions                                    16    1
 PW_GRID| the grid is blocked:                                                NO
 PW_GRID| Cutoff [a.u.]                                                    300.0
 PW_GRID| spherical cutoff:                                                   NO
 PW_GRID|   Bounds   1           -150     149                Points:         300
 PW_GRID|   Bounds   2           -150     149                Points:         300
 PW_GRID|   Bounds   3           -150     149                Points:         300
 PW_GRID| Volume element (a.u.^3)  0.2000E-02     Volume (a.u.^3)     53986.6767
 PW_GRID| Grid span                                                    FULLSPACE
 PW_GRID|   Distribution                         Average         Max         Min
 PW_GRID|   G-Vectors                          1687500.0     1687500     1687500
 PW_GRID|   G-Rays                                5625.0        5625        5625
 PW_GRID|   Real Space Points                  1687500.0     1710000     1620000

 PW_GRID| Information for grid number                                          2
 PW_GRID| Number of the reference grid                                         1
 PW_GRID| Grid distributed over                                    16 processors
 PW_GRID| Real space group dimensions                                    16    1
 PW_GRID| the grid is blocked:                                                NO
 PW_GRID| Cutoff [a.u.]                                                    100.0
 PW_GRID| spherical cutoff:                                                   NO
 PW_GRID|   Bounds   1            -90      89                Points:         180
 PW_GRID|   Bounds   2            -90      89                Points:         180
 PW_GRID|   Bounds   3            -90      89                Points:         180
 PW_GRID| Volume element (a.u.^3)  0.9257E-02     Volume (a.u.^3)     53986.6767
 PW_GRID| Grid span                                                    FULLSPACE
 PW_GRID|   Distribution                         Average         Max         Min
 PW_GRID|   G-Vectors                           364500.0      364680      364320
 PW_GRID|   G-Rays                                2025.0        2026        2024
 PW_GRID|   Real Space Points                   364500.0      388800      356400

 PW_GRID| Information for grid number                                          3
 PW_GRID| Number of the reference grid                                         1
 PW_GRID| Grid distributed over                                    16 processors
 PW_GRID| Real space group dimensions                                    16    1
 PW_GRID| the grid is blocked:                                                NO
 PW_GRID| Cutoff [a.u.]                                                     33.3
 PW_GRID| spherical cutoff:                                                   NO
 PW_GRID|   Bounds   1            -50      49                Points:         100
 PW_GRID|   Bounds   2            -50      49                Points:         100
 PW_GRID|   Bounds   3            -50      49                Points:         100
 PW_GRID| Volume element (a.u.^3)  0.5399E-01     Volume (a.u.^3)     53986.6767
 PW_GRID| Grid span                                                    FULLSPACE
 PW_GRID|   Distribution                         Average         Max         Min
 PW_GRID|   G-Vectors                            62500.0       62600       62400
 PW_GRID|   G-Rays                                 625.0         626         624
 PW_GRID|   Real Space Points                    62500.0       70000       60000

 PW_GRID| Information for grid number                                          4
 PW_GRID| Number of the reference grid                                         1
 PW_GRID| Grid distributed over                                    16 processors
 PW_GRID| Real space group dimensions                                    16    1
 PW_GRID| the grid is blocked:                                                NO
 PW_GRID| Cutoff [a.u.]                                                     11.1
 PW_GRID| spherical cutoff:                                                   NO
 PW_GRID|   Bounds   1            -30      29                Points:          60
 PW_GRID|   Bounds   2            -30      29                Points:          60
 PW_GRID|   Bounds   3            -30      29                Points:          60
 PW_GRID| Volume element (a.u.^3)  0.2499         Volume (a.u.^3)     53986.6767
 PW_GRID| Grid span                                                    FULLSPACE
 PW_GRID|   Distribution                         Average         Max         Min
 PW_GRID|   G-Vectors                            13500.0       13560       13440
 PW_GRID|   G-Rays                                 225.0         226         224
 PW_GRID|   Real Space Points                    13500.0       14400       10800

 POISSON| Solver                                                         WAVELET
 POISSON| Wavelet| Scaling function                                           40
 POISSON| Periodicity                                                       NONE

 RS_GRID| Information for grid number                                          1
 RS_GRID|   Bounds   1           -150     149                Points:         300
 RS_GRID|   Bounds   2           -150     149                Points:         300
 RS_GRID|   Bounds   3           -150     149                Points:         300
 RS_GRID| Real space distribution over                                  4 groups
 RS_GRID| Real space distribution along direction                              2
 RS_GRID| Border size                                                         24
 RS_GRID| Real space distribution over                                  4 groups
 RS_GRID| Real space distribution along direction                              3
 RS_GRID| Border size                                                         24
 RS_GRID|   Distribution                         Average         Max         Min
 RS_GRID|   Planes                                 123.0         123         123
 RS_GRID|   Distribution                         Average         Max         Min
 RS_GRID|   Planes                                 123.0         123         123

 RS_GRID| Information for grid number                                          2
 RS_GRID|   Bounds   1            -90      89                Points:         180
 RS_GRID|   Bounds   2            -90      89                Points:         180
 RS_GRID|   Bounds   3            -90      89                Points:         180
 RS_GRID| Real space distribution over                                  4 groups
 RS_GRID| Real space distribution along direction                              2
 RS_GRID| Border size                                                         25
 RS_GRID| Real space distribution over                                  4 groups
 RS_GRID| Real space distribution along direction                              3
 RS_GRID| Border size                                                         25
 RS_GRID|   Distribution                         Average         Max         Min
 RS_GRID|   Planes                                  95.0          95          95
 RS_GRID|   Distribution                         Average         Max         Min
 RS_GRID|   Planes                                  95.0          95          95

 RS_GRID| Information for grid number                                          3
 RS_GRID|   Bounds   1            -50      49                Points:         100
 RS_GRID|   Bounds   2            -50      49                Points:         100
 RS_GRID|   Bounds   3            -50      49                Points:         100
 RS_GRID| Real space fully replicated
 RS_GRID| Group size                                                           1

 RS_GRID| Information for grid number                                          4
 RS_GRID|   Bounds   1            -30      29                Points:          60
 RS_GRID|   Bounds   2            -30      29                Points:          60
 RS_GRID|   Bounds   3            -30      29                Points:          60
 RS_GRID| Real space fully replicated
 RS_GRID| Group size                                                           1

  HFX_INFO| Replica ID:                                                        1
  HFX_INFO| FRACTION:                                               0.2500000000
  HFX_INFO| Interaction Potential:                                       COULOMB
  HFX_INFO| EPS_SCHWARZ:                                                 1.0E-10
  HFX_INFO| EPS_SCHWARZ_FORCES                                           1.0E-08
  HFX_INFO| EPS_STORAGE_SCALING:                                         1.0E+00
  HFX_INFO| NBINS:                                                            64
  HFX_INFO| BLOCK_SIZE:                                                        1
  HFX_INFO| Number of periodic shells considered:                           NONE
  HFX_INFO| Number of periodic cells considered:                            NONE


 Number of electrons:                                                         44
 Number of occupied orbitals:                                                 22
 Number of molecular orbitals:                                               210

 Number of orbital functions:                                                210
 Number of independent orbital functions:                                    210

 Extrapolation method: initial_guess


 SCF WAVEFUNCTION OPTIMIZATION

  Step     Update method      Time    Convergence         Total energy    Change
  ------------------------------------------------------------------------------

  HFX_MEM_INFO| Est. max. program size before HFX [MiB]:                    1241
  HFX_MEM_INFO| Number of cart. primitive ERI's calculated:           1054613574
  HFX_MEM_INFO| Number of sph. ERI's calculated:                       285643988
  HFX_MEM_INFO| Number of sph. ERI's stored in-core:                   285643988
  HFX_MEM_INFO| Number of sph. ERI's stored on disk:                           0
  HFX_MEM_INFO| Number of sph. ERI's calculated on the fly:                    0
  HFX_MEM_INFO| Total memory consumption ERI's RAM [MiB]:                    764
  HFX_MEM_INFO| Whereof max-vals [MiB]:                                        1
  HFX_MEM_INFO| Total compression factor ERI's RAM:                         2.86
  HFX_MEM_INFO| Total memory consumption ERI's disk [MiB]:                     0
  HFX_MEM_INFO| Total compression factor ERI's disk:                        0.00
  HFX_MEM_INFO| Size of density/Fock matrix [MiB]:                             0
  HFX_MEM_INFO| Size of buffers [MiB]:                                         0
  HFX_MEM_INFO| Est. max. program size after HFX  [MiB]:                    1522

     1 NoMix/Diag. 0.40E+00    6.6     3.3849E-09      -233.1292883385 -2.33E+02
     2 Broy./Diag. 0.40E+00    3.2     2.8493E-09      -233.1292883385  1.02E-12
     3 Broy./Diag. 0.40E+00    3.2     4.1600E-09      -233.1292883385 -8.81E-13
     4 Broy./Diag. 0.40E+00    3.3     4.1665E-09      -233.1292883385  2.84E-13
     5 Broy./Diag. 0.40E+00    3.3     2.9978E-09      -233.1292883385 -7.96E-13
     6 Broy./Diag. 0.40E+00    3.2     3.9225E-09      -233.1292883385  5.97E-13
     7 Broy./Diag. 0.40E+00    3.3     1.1564E-09      -233.1292883385 -1.14E-13
     8 Broy./Diag. 0.40E+00    3.3     1.0817E-09      -233.1292883385  9.95E-13
     9 Broy./Diag. 0.40E+00    3.2     5.1175E-09      -233.1292883385 -1.11E-12
    10 Broy./Diag. 0.40E+00    3.3     6.4426E-09      -233.1292883385  2.56E-13
    11 Broy./Diag. 0.40E+00    3.2     2.9051E-09      -233.1292883385 -2.56E-13
    12 Broy./Diag. 0.40E+00    3.3     7.0750E-09      -233.1292883385  2.70E-12
    13 Broy./Diag. 0.40E+00    3.2     5.2335E-09      -233.1292883385 -2.42E-12
    14 Broy./Diag. 0.40E+00    3.2     1.5850E-09      -233.1292883385 -2.84E-14
    15 Broy./Diag. 0.40E+00    3.3     3.5945E-09      -233.1292883385 -1.17E-12
    16 Broy./Diag. 0.40E+00    3.2     2.6493E-09      -233.1292883385  1.19E-12
    17 Broy./Diag. 0.40E+00    3.3     3.6415E-09      -233.1292883385 -8.81E-13
    18 Broy./Diag. 0.40E+00    3.2     3.2506E-09      -233.1292883385  7.96E-13
    19 Broy./Diag. 0.40E+00    3.3     3.2151E-09      -233.1292883385  1.53E-12
    20 Broy./Diag. 0.40E+00    3.2     4.1795E-09      -233.1292883385 -1.93E-12
    21 Broy./Diag. 0.40E+00    3.3     2.3822E-09      -233.1292883385  2.13E-12
    22 Broy./Diag. 0.40E+00    3.2     5.9079E-09      -233.1292883385 -1.93E-12
    23 Broy./Diag. 0.40E+00    3.3     2.5807E-09      -233.1292883385 -1.22E-12
    24 Broy./Diag. 0.40E+00    3.2     3.2487E-09      -233.1292883385  7.67E-13
    25 Broy./Diag. 0.40E+00    3.3     2.6049E-09      -233.1292883385 -2.10E-12
    26 Broy./Diag. 0.40E+00    3.2     2.6108E-09      -233.1292883385  2.64E-12
    27 Broy./Diag. 0.40E+00    3.3     3.2386E-09      -233.1292883385 -6.54E-13
    28 Broy./Diag. 0.40E+00    3.2     5.7755E-09      -233.1292883385  3.98E-13
    29 Broy./Diag. 0.40E+00    3.3     2.7288E-09      -233.1292883385 -3.44E-12
    30 Broy./Diag. 0.40E+00    3.2     2.1693E-09      -233.1292883385  3.30E-12
    31 Broy./Diag. 0.40E+00    3.3     3.2781E-09      -233.1292883385 -5.68E-14
    32 Broy./Diag. 0.40E+00    3.2     2.3679E-09      -233.1292883385  2.56E-13
    33 Broy./Diag. 0.40E+00    3.3     1.0679E-09      -233.1292883385 -1.28E-12
    34 Broy./Diag. 0.40E+00    3.2     1.5575E-09      -233.1292883385  1.65E-12
    35 Broy./Diag. 0.40E+00    3.3     3.8780E-09      -233.1292883385  1.22E-12
    36 Broy./Diag. 0.40E+00    3.2     1.9225E-09      -233.1292883385 -1.17E-12
    37 Broy./Diag. 0.40E+00    3.3     3.8113E-09      -233.1292883385  9.09E-13
    38 Broy./Diag. 0.40E+00    3.3     3.9824E-09      -233.1292883385  1.02E-12
    39 Broy./Diag. 0.40E+00    3.2     1.7703E-09      -233.1292883385 -2.05E-12
    40 Broy./Diag. 0.40E+00    3.2     2.1844E-09      -233.1292883385  1.14E-13
    41 Broy./Diag. 0.40E+00    3.3     2.0278E-09      -233.1292883385  2.84E-14
    42 Broy./Diag. 0.40E+00    3.2     1.5175E-09      -233.1292883385 -1.14E-13
    43 Broy./Diag. 0.40E+00    3.2     2.6510E-09      -233.1292883385 -3.13E-13
    44 Broy./Diag. 0.40E+00    3.3     3.8566E-09      -233.1292883385  3.41E-13
    45 Broy./Diag. 0.40E+00    3.3     2.3900E-09      -233.1292883385 -2.84E-13
    46 Broy./Diag. 0.40E+00    3.3     1.2049E-09      -233.1292883385 -6.82E-13
    47 Broy./Diag. 0.40E+00    3.2     2.8909E-09      -233.1292883385  9.95E-13
    48 Broy./Diag. 0.40E+00    3.3     2.4431E-09      -233.1292883385  1.39E-12
    49 Broy./Diag. 0.40E+00    3.2     3.1306E-09      -233.1292883385 -1.62E-12
    50 Broy./Diag. 0.40E+00    3.3     1.5652E-09      -233.1292883385  9.66E-13
    51 Broy./Diag. 0.40E+00    3.2     9.4387E-10      -233.1292883385 -1.17E-12

  *** SCF run converged in    51 steps ***


  Electronic density on regular grids:        -32.7837385991       11.2162614009
  Core density on regular grids:               44.0000000000       -0.0000000000
  Hard and soft densities (Lebedev):         -292.6992984578     -281.4830365770
  Total Rho_soft + Rho1_hard - Rho1_soft      -44.0000004799
  Total charge density (r-space):              -0.0000004799
  Total Rho_soft + Rho0_soft (g-space):        -0.0000005475

  Overlap energy of the core charge distribution:               0.00001824423737
  Self energy of the core charge distribution:               -185.96027138526242
  Core Hamiltonian energy:                                    -40.17104494332263
  Hartree energy:                                              75.92835531164010
  Exchange-correlation energy:                                -10.61149158467149
  Hartree-Fock Exchange energy:                                -8.45940938816054

  GAPW| Exc from hard and soft atomic rho1:                   -16.08617731586135
  GAPW| local Eh = 1 center integrals:                        -47.76926727711241

  Total energy:                                              -233.12928833851336

 !-----------------------------------------------------------------------------!
                     Mulliken Population Analysis

 #  Atom  Element  Kind  Atomic population                           Net charge
       1     H        1          1.731859                             -0.731859
       2     H        1          1.731859                             -0.731859
       3     H        1          1.720621                             -0.720621
       4     H        1          1.720621                             -0.720621
       5     H        1          1.464783                             -0.464783
       6     H        1          1.464783                             -0.464783
       7     H        1          1.496123                             -0.496123
       8     H        1          1.496123                             -0.496123
       9     C        2          4.878439                              1.121561
      10     C        2          4.878439                              1.121561
      11     C        2          5.001240                              0.998760
      12     C        2          5.001240                              0.998760
      13     C        2          5.706933                              0.293067
      14     C        2          5.706933                              0.293067
 # Total charge                             44.000000                 -0.000000

 !-----------------------------------------------------------------------------!

 !-----------------------------------------------------------------------------!
                           Hirshfeld Charges

  #Atom  Element  Kind  Ref Charge     Population                    Net charge
      1       H      1       1.000          0.510                         0.490
      2       H      1       1.000          0.510                         0.490
      3       H      1       1.000          0.510                         0.490
      4       H      1       1.000          0.510                         0.490
      5       H      1       1.000          0.506                         0.494
      6       H      1       1.000          0.506                         0.494
      7       H      1       1.000          0.507                         0.493
      8       H      1       1.000          0.507                         0.493
      9       C      2       6.000          6.480                        -0.480
     10       C      2       6.000          6.480                        -0.480
     11       C      2       6.000          6.473                        -0.473
     12       C      2       6.000          6.473                        -0.473
     13       C      2       6.000          6.990                        -0.990
     14       C      2       6.000          6.990                        -0.990

  Total Charge                                                            0.047
 !-----------------------------------------------------------------------------!

 MOMENTS
  The electric/magnetic moments are written to file:
  Hexatriene-MOMENTS-moments-1.dat

  
 -------------------------------------------------------------------------------
 -                                                                             -
 -                          BANDSTRUCTURE CALCULATION                          -
 -                                                                             -
 -------------------------------------------------------------------------------
  
 Number of occupied molecular orbitals (MOs) = Number of occupied bands       22
 Number of unoccupied (= virtual) MOs = Number of unoccupied bands           188
 Number of Gaussian basis functions for MOs                                  210
 K-point mesh for the density of states (DOS) and the self-energy      1   1   1
  
 -------------------------------------------------------------------------------
 -                                                                             -
 -                              GW CALCULATION                                 -
 -                                                                             -
 -------------------------------------------------------------------------------
  
 Input: Number of time/freq. points                                           30
 Input: Filter threshold for sparse tensor operations                    1.0E-08
 Apply Hedin shift                                                             F
  
 Number of auxiliary Gaussian basis functions for , , W                   1004
 Cutoff radius for the truncated Coulomb operator in ^x:               2645.9 
 Cutoff radius for the truncated Coulomb operator in RI metric:            3.0 
 Regularization parameter of RI                                          0.0E+00
 Lattice sum size for V(k):                                                    3
  
 K-point mesh 1 for , , W                                            1   1   1
 K-point mesh 2 for , , W (for k-point extrapolation of W)           1   1   1
 Approximate the k-point extrapolation                                         F
 Group size for tensor operations                                             16
 
 Computed 3-center integrals (|P), execution time                        1.3 s
 Percentage of non-zero (|P)                                         100.000 %
 Max. distance between , in non-zero (|P)                              8.0 A
 Required memory if storing all 3-center integrals (|P)                   0 GB
 
 Number of i and j atoms in M_P(), N_Q():                               15
 Number of inner loop atoms for  in M_P = sum_ (|P) G_                14
 
 SCF direct band gap (eV)                                                   4.74
 Max. SCF eigval diff. (eV)                                            272392.67
 E-Range for minimax grid                                               57480.15
 Number of Pad parameters for analytic continuation:                          7
 
 
 Read W^MIC(i) from file for time point      1 / 30,    Execution time    0.7 s
 Read W^MIC(i) from file for time point      2 / 30,    Execution time    0.0 s
 Read W^MIC(i) from file for time point      3 / 30,    Execution time    0.0 s
 Read W^MIC(i) from file for time point      4 / 30,    Execution time    0.0 s
 Read W^MIC(i) from file for time point      5 / 30,    Execution time    0.0 s
 Read W^MIC(i) from file for time point      6 / 30,    Execution time    0.0 s
 Read W^MIC(i) from file for time point      7 / 30,    Execution time    0.0 s
 Read W^MIC(i) from file for time point      8 / 30,    Execution time    0.0 s
 Read W^MIC(i) from file for time point      9 / 30,    Execution time    0.0 s
 Read W^MIC(i) from file for time point     10 / 30,    Execution time    0.0 s
 Read W^MIC(i) from file for time point     11 / 30,    Execution time    0.0 s
 Read W^MIC(i) from file for time point     12 / 30,    Execution time    0.0 s
 Read W^MIC(i) from file for time point     13 / 30,    Execution time    0.0 s
 Read W^MIC(i) from file for time point     14 / 30,    Execution time    0.0 s
 Read W^MIC(i) from file for time point     15 / 30,    Execution time    0.0 s
 Read W^MIC(i) from file for time point     16 / 30,    Execution time    0.0 s
 Read W^MIC(i) from file for time point     17 / 30,    Execution time    0.0 s
 Read W^MIC(i) from file for time point     18 / 30,    Execution time    0.0 s
 Read W^MIC(i) from file for time point     19 / 30,    Execution time    0.0 s
 Read W^MIC(i) from file for time point     20 / 30,    Execution time    0.0 s
 Read W^MIC(i) from file for time point     21 / 30,    Execution time    0.0 s
 Read W^MIC(i) from file for time point     22 / 30,    Execution time    0.0 s
 Read W^MIC(i) from file for time point     23 / 30,    Execution time    0.0 s
 Read W^MIC(i) from file for time point     24 / 30,    Execution time    0.0 s
 Read W^MIC(i) from file for time point     25 / 30,    Execution time    0.0 s
 Read W^MIC(i) from file for time point     26 / 30,    Execution time    0.0 s
 Read W^MIC(i) from file for time point     27 / 30,    Execution time    0.0 s
 Read W^MIC(i) from file for time point     28 / 30,    Execution time    0.0 s
 Read W^MIC(i) from file for time point     29 / 30,    Execution time    0.0 s
 Read W^MIC(i) from file for time point     30 / 30,    Execution time    0.0 s
 
 Read W^MIC(f=0) from file for freq. point    1 /  1,    Execution time    0.0 s
 Read ^c(i,k=0) from file for time point    1 / 30,    Execution time    0.0 s
 Read ^c(i,k=0) from file for time point    2 / 30,    Execution time    0.0 s
 Read ^c(i,k=0) from file for time point    3 / 30,    Execution time    0.0 s
 Read ^c(i,k=0) from file for time point    4 / 30,    Execution time    0.0 s
 Read ^c(i,k=0) from file for time point    5 / 30,    Execution time    0.0 s
 Read ^c(i,k=0) from file for time point    6 / 30,    Execution time    0.0 s
 Read ^c(i,k=0) from file for time point    7 / 30,    Execution time    0.0 s
 Read ^c(i,k=0) from file for time point    8 / 30,    Execution time    0.0 s
 Read ^c(i,k=0) from file for time point    9 / 30,    Execution time    0.0 s
 Read ^c(i,k=0) from file for time point   10 / 30,    Execution time    0.0 s
 Read ^c(i,k=0) from file for time point   11 / 30,    Execution time    0.0 s
 Read ^c(i,k=0) from file for time point   12 / 30,    Execution time    0.0 s
 Read ^c(i,k=0) from file for time point   13 / 30,    Execution time    0.0 s
 Read ^c(i,k=0) from file for time point   14 / 30,    Execution time    0.0 s
 Read ^c(i,k=0) from file for time point   15 / 30,    Execution time    0.0 s
 Read ^c(i,k=0) from file for time point   16 / 30,    Execution time    0.0 s
 Read ^c(i,k=0) from file for time point   17 / 30,    Execution time    0.0 s
 Read ^c(i,k=0) from file for time point   18 / 30,    Execution time    0.0 s
 Read ^c(i,k=0) from file for time point   19 / 30,    Execution time    0.0 s
 Read ^c(i,k=0) from file for time point   20 / 30,    Execution time    0.0 s
 Read ^c(i,k=0) from file for time point   21 / 30,    Execution time    0.0 s
 Read ^c(i,k=0) from file for time point   22 / 30,    Execution time    0.0 s
 Read ^c(i,k=0) from file for time point   23 / 30,    Execution time    0.0 s
 Read ^c(i,k=0) from file for time point   24 / 30,    Execution time    0.0 s
 Read ^c(i,k=0) from file for time point   25 / 30,    Execution time    0.0 s
 Read ^c(i,k=0) from file for time point   26 / 30,    Execution time    0.0 s
 Read ^c(i,k=0) from file for time point   27 / 30,    Execution time    0.0 s
 Read ^c(i,k=0) from file for time point   28 / 30,    Execution time    0.0 s
 Read ^c(i,k=0) from file for time point   29 / 30,    Execution time    0.0 s
 Read ^c(i,k=0) from file for time point   30 / 30,    Execution time    0.0 s
 
 Sparsity of ^c(i,k=0): Percentage of skipped atom pairs:                0.0 %
 Retaining nl_3c for RTBSE

 
 SCF valence band maximum (eV):                                           -6.227
 SCF conduction band minimum (eV):                                        -1.488
 SCF indirect band gap (eV):                                               4.739
 SCF direct band gap (eV):                                                 4.739
 
 G0W0 valence band maximum (eV):                                          -7.687
 G0W0 conduction band minimum (eV):                                        0.558
 G0W0 indirect band gap (eV):                                              8.245
 G0W0 direct band gap (eV):                                                8.245
 
[...]
 -                                                                             -
 -------------------------------------------------------------------------------
 COUNTER                                    TOTAL       BLAS       SMM       ACC
 flops     9 x    32 x     9               331776       0.0%    100.0%      0.0%     
 flops    23 x    32 x     9               635904       0.0%    100.0%      0.0%     
 flops     9 x    32 x    23               635904       0.0%    100.0%      0.0%     
 flops    23 x    32 x    23              1218816       0.0%    100.0%      0.0%     
 flops     9 x     9 x    32              9704448       0.0%    100.0%      0.0%     
 flops     9 x     9 x    50             15163200       0.0%    100.0%      0.0%     
 flops    23 x     9 x    32             16533504       0.0%    100.0%      0.0%     
 flops     9 x    23 x    32             16533504       0.0%    100.0%      0.0%     
 flops    23 x     9 x    50             25833600       0.0%    100.0%      0.0%     
 flops     9 x    23 x    50             25833600       0.0%    100.0%      0.0%     
 flops    23 x    23 x    32             36970752       0.0%    100.0%      0.0%     
 flops     9 x     9 x    64             38817792       0.0%    100.0%      0.0%     
 flops   212 x   236 x   244             48831232       0.0%    100.0%      0.0%     
 flops   212 x   236 x   258             51633024       0.0%    100.0%      0.0%     
 flops    46 x   236 x   244             52977280       0.0%    100.0%      0.0%     
 flops    46 x   236 x   258             56016960       0.0%    100.0%      0.0%     
 flops    23 x    23 x    50             57766800       0.0%    100.0%      0.0%     
 flops   258 x   236 x   244             59426688       0.0%    100.0%      0.0%     
 flops   258 x   236 x   258             62836416       0.0%    100.0%      0.0%     
 flops    23 x     9 x    64             66134016       0.0%    100.0%      0.0%     
 flops     9 x    23 x    64             66134016       0.0%    100.0%      0.0%     
 flops   152 x   236 x   244             70022144       0.0%    100.0%      0.0%     
 flops   152 x   236 x   258             74039808       0.0%    100.0%      0.0%     
 flops    23 x    23 x    64            147883008       0.0%    100.0%      0.0%     
 flops   212 x   256 x   244            158908416       0.0%    100.0%      0.0%     
 flops   212 x   256 x   258            168026112       0.0%    100.0%      0.0%     
 flops    46 x   256 x   244            172400640       0.0%    100.0%      0.0%     
 flops    46 x   256 x   258            182292480       0.0%    100.0%      0.0%     
 flops   258 x   256 x   244            193388544       0.0%    100.0%      0.0%     
 flops   258 x   256 x   258            204484608       0.0%    100.0%      0.0%     
 flops   152 x   256 x   244            227868672       0.0%    100.0%      0.0%     
 flops   152 x   256 x   258            240943104       0.0%    100.0%      0.0%     
 flops inhomo. stacks                           0       0.0%      0.0%      0.0%
 flops total                         2.550227E+09       0.0%    100.0%      0.0%
 flops max/rank                    178.095264E+06       0.0%    100.0%      0.0%
 matmuls inhomo. stacks                         0       0.0%      0.0%      0.0%
 matmuls total                              22180       0.0%    100.0%      0.0%
 number of processed stacks                 15216       0.0%    100.0%      0.0%
 average stack size                                     0.0       1.5       0.0
 marketing flops                     2.126937E+09
 -------------------------------------------------------------------------------
 # multiplications                             54
 max memory usage/rank               1.794249E+09
 # max total images/rank                        1
 # max 3D layers                                1
 # MPI messages exchanged                    5184
 MPI messages size (bytes):
  total size                       159.678048E+06
  min size                           0.000000E+00
  max size                         532.512000E+03
  average size                      30.802092E+03
 MPI breakdown and total messages size (bytes):
             size <=      128                  36                        0
       128 < size <=     8192                   0                        0
      8192 < size <=    32768                5052                111293280
     32768 < size <=   131072                   0                        0
    131072 < size <=  4194304                  96                 48384768
   4194304 < size <= 16777216                   0                        0
  16777216 < size                               0                        0
 -------------------------------------------------------------------------------
 -                                                                             -
 -                      DBCSR MESSAGE PASSING PERFORMANCE                      -
 -                                                                             -
 -------------------------------------------------------------------------------
 ROUTINE             CALLS      AVE VOLUME [Bytes]
 MP_Bcast               33                     12.
 MP_Allreduce          509                     11.
 MP_Alltoall          2867                  15489.
 MP_ISend              864                  12318.
 MP_IRecv              864                  10778.
 -------------------------------------------------------------------------------

 -------------------------------------------------------------------------------
 -                                                                             -
 -                                DBM STATISTICS                               -
 -                                                                             -
 -------------------------------------------------------------------------------
    M  x    N  x    K                                          COUNT     PERCENT
    ?  x    ?  x    ?                                         345744      50.00%
   ??  x  ???  x   ??                                          25344       3.67%
    ?  x    ?  x  ???                                          21504       3.11%
  ???  x    ?  x    ?                                          21504       3.11%
   ??  x   ??  x  ???                                          21312       3.08%
  ???  x   ??  x   ??                                          21312       3.08%
   ??  x  ???  x  ???                                          19008       2.75%
  ???  x  ???  x   ??                                          19008       2.75%
    ?  x    ?  x >999                                          16128       2.33%
    ?  x   ??  x  ???                                          16128       2.33%
   ??  x    ?  x  ???                                          16128       2.33%
  ???  x    ?  x   ??                                          16128       2.33%
  ???  x   ??  x    ?                                          16128       2.33%
 >999  x    ?  x    ?                                          16128       2.33%
  ???  x  ???  x  ???                                          14256       2.06%
   ??  x   ??  x   ??                                          12288       1.78%
    ?  x   ??  x >999                                          12096       1.75%
   ??  x    ?  x >999                                          12096       1.75%
 >999  x    ?  x   ??                                          12096       1.75%
 >999  x   ??  x    ?                                          12096       1.75%
   ??  x   ??  x >999                                           9072       1.31%
 >999  x   ??  x   ??                                           9072       1.31%
  ???  x   ??  x  ???                                           6912       1.00%
 -------------------------------------------------------------------------------
 Memory consumption                            Number of allocations  Size [MiB]
 Host                                                             12          91
 -------------------------------------------------------------------------------

 -------------------------------------------------------------------------------
 -                                                                             -
 -                                GRID STATISTICS                              -
 -                                                                             -
 -------------------------------------------------------------------------------
 LP    KERNEL             BACKEND                              COUNT     PERCENT
 1     collocate ortho    CPU                                 111800      18.14%
 1     integrate ortho    CPU                                 111800      18.14%
 0     collocate ortho    CPU                                  77012      12.50%
 0     integrate ortho    CPU                                  77012      12.50%
 2     collocate ortho    CPU                                  76648      12.44%
 2     integrate ortho    CPU                                  76648      12.44%
 3     collocate ortho    CPU                                  26520       4.30%
 3     integrate ortho    CPU                                  26520       4.30%
 2     collocate general  CPU                                  11648       1.89%
 2     integrate general  CPU                                  11648       1.89%
 4     collocate ortho    CPU                                   4316       0.70%
 4     integrate ortho    CPU                                   4316       0.70%
 0     collocate general  CPU                                    224       0.04%
 0     integrate general  CPU                                    224       0.04%
 -------------------------------------------------------------------------------

 MEMORY| Estimated peak process memory [MiB]                                1907

 -------------------------------------------------------------------------------
 ----                             MULTIGRID INFO                            ----
 -------------------------------------------------------------------------------
 count for grid        1:         116654          cutoff [a.u.]          300.00
 count for grid        2:          21323          cutoff [a.u.]          100.00
 count for grid        3:          21400          cutoff [a.u.]           33.33
 count for grid        4:          12257          cutoff [a.u.]           11.11
 total gridlevel count  :         171634

 -------------------------------------------------------------------------------
 -                                                                             -
 -                         MESSAGE PASSING PERFORMANCE                         -
 -                                                                             -
 -------------------------------------------------------------------------------

 ROUTINE             CALLS      AVE VOLUME [Bytes]
 MP_Group              255
 MP_Bcast             2729                 117283.
 MP_Allreduce         3878                   8396.
 MP_Sync               418
 MP_Alltoall          1470               65015955.
 MP_SendRecv          1560                 337600.
 MP_ISendRecv         3150                 175470.
 MP_Wait             10474
 MP_comm_split         125
 MP_ISend             7012                1322275.
 MP_IRecv             6982                1327025.
 -------------------------------------------------------------------------------


 -------------------------------------------------------------------------------
 -                                                                             -
 -                           R E F E R E N C E S                               -
 -                                                                             -
 -------------------------------------------------------------------------------
 
 CP2K version 2025.1 (Development Version), the CP2K developers group (2025).
 CP2K is freely available from https://www.cp2k.org/ .
 
 M. Graml, K. Zollner, D. Hernangmez-Prez, P. E. Faria Junior, J. Wilhelm.
 J. Chem. Theory Comput. 20, 2202-2208 (2024).
 Low-scaling GW algorithm applied to twisted transition-metal dichalcogenide 
 heterobilayers.
 https://doi.org/10.1021/acs.jctc.3c01230

 T. D. Kuehne, M. Iannuzzi, M. Del Ben, V. V. Rybkin, P. Seewald, F. Stein, T. 
 Laino, R. Z. Khaliullin, O. Schuett, F. Schiffmann, D. Golze, J. Wilhelm, S. 
 Chulkov, M. H. Bani-Hashemian, V. Weber, U. Borstnik, M. Taillefumier, A. S. 
 Jakobovits, A. Lazzaro, H. Pabst, T. Mueller, R. Schade, M. Guidon, S. 
 Andermatt, N. Holmberg, G. K. Schenter, A. Hehn, A. Bussy, F. Belleflamme, G. 
 Tabacchi, A. Gloess, M. Lass, I. Bethune, C. J. Mundy, C. Plessl, M. Watkins, 
 J. VandeVondele, M. Krack, J. Hutter.
 J. Chem. Phys. 152, 194103 (2020).
 CP2K: An electronic structure and molecular dynamics software package - 
 Quickstep: Efficient and accurate electronic structure calculations.
 https://doi.org/10.1063/5.0007045

 O. Schuett, P. Messmer, J. Hutter, J. VandeVondele.
 Electronic Structure Calculations on Graphics Processing Units, 173-190 (2016).
 GPU-Accelerated Sparse Matrix-Matrix Multiplication for Linear Scaling Density 
 Functional Theory.
 https://doi.org/10.1002/9781118670712.ch8

 A. Heinecke, G. Henry, M. Hutchinson, H. Pabst.
 Proceedings of Intl. Supercomputing Conference, 981-991 (2016).
 LIBXSMM: Accelerating Small Matrix Multiplications by Runtime Code Generation.
 https://doi.org/10.1109/SC.2016.83

 J. Hutter, M. Iannuzzi, F. Schiffmann, J. VandeVondele.
 WIREs Comput Mol Sci. 4, 15-25 (2014).
 CP2K: atomistic simulations of condensed matter systems.
 https://doi.org/10.1002/wcms.1159

 U. Borstnik, J. VandeVondele, V. Weber, J. Hutter.
 Parallel Comput. 40, 47-58 (2014).
 Sparse matrix multiplication: The distributed block-compressed sparse row 
 library.
 https://doi.org/10.1016/j.parco.2014.03.012

 M. Guidon, J. Hutter, J. VandeVondele.
 J. Chem. Theory Comput. 5, 3010-3021 (2009).
 Robust Periodic Hartree-Fock Exchange for Large-Scale Simulations Using 
 Gaussian Basis Sets.
 https://doi.org/10.1021/ct900494g

 M. Guidon, F. Schiffmann, J. Hutter, J. VandeVondele.
 J. Chem. Phys. 128, 214104 (2008).
 Ab initio molecular dynamics using hybrid density functionals.
 https://doi.org/10.1063/1.2931945

 L. Genovese, T. Deutsch, S. Goedecker.
 J. Chem. Phys. 127, 054704 (2007).
 Efficient and accurate three-dimensional Poisson solver for surface problems.
 https://doi.org/10.1063/1.2754685

 L. Genovese, T. Deutsch, A. Neelov, S. Goedecker, G. Beylkin.
 J. Chem. Phys. 125, 074105 (2006).
 Efficient solution of Poisson's equation with free boundary conditions.
 https://doi.org/10.1063/1.2335442

 M. Frigo, S. G. Johnson.
 Proc. IEEE 93, 216-231 (2005).
 The design and implementation of FFTW3.
 https://doi.org/10.1109/JPROC.2004.840301

 M. Krack, M. Parrinello.
 Phys. Chem. Chem. Phys. 2, 2105-2112 (2000).
 All-electron ab-initio molecular dynamics.
 https://doi.org/10.1039/b001167n

 G. Lippert, J. Hutter, M. Parrinello.
 Theor. Chem. Acc. 103, 124-140 (1999).
 The Gaussian and augmented-plane-wave density functional method for ab initio 
 molecular dynamics simulations.
 https://doi.org/10.1007/s002140050523

 J. P. Perdew, K. Burke, M. Ernzerhof.
 Phys. Rev. Lett. 77, 3865-3868 (1996).
 Generalized gradient approximation made simple.
 https://doi.org/10.1103/PhysRevLett.77.3865


 -------------------------------------------------------------------------------
 -                                                                             -
 -                                T I M I N G                                  -
 -                                                                             -
 -------------------------------------------------------------------------------
 SUBROUTINE                       CALLS  ASD         SELF TIME        TOTAL TIME
                                MAXIMUM       AVERAGE  MAXIMUM  AVERAGE  MAXIMUM
 CP2K                                 1  1.0    0.027    0.032  358.205  358.207
 run_propagation_bse                  1  2.0    0.021    0.278  356.604  357.551
 qs_energies                          1  3.0    0.000    0.001  178.372  178.393
 scf_env_do_scf                       1  4.0    0.000    0.000  169.983  169.988
 scf_env_do_scf_inner_loop           51  5.0    0.001    0.003  169.983  169.987
 ft_simple                            8  3.0  163.430  164.299  163.430  164.299
 qs_ks_build_kohn_sham_matrix        52  8.0    0.008    0.009  139.460  139.461
 qs_ks_update_qs_env                 51  6.0    0.000    0.000  137.986  137.987
 rebuild_ks_matrix                   51  7.0    0.000    0.000  137.983  137.984
 fft_wrap_pw1pw2                   1083 11.0    0.024    0.027   88.111   94.444
 fft_wrap_pw1pw2_300                771 12.1    3.818    3.970   85.558   91.891
 fft3d_ps                          1083 13.0   36.029   36.857   68.686   75.359
 qs_vxc_create                       52  9.0    0.001    0.001   57.064   57.065
 xc_vxc_pw_create                    51 10.0    0.791    0.864   57.064   57.064
 xc_pw_derive                       306 12.0    0.004    0.005   39.246   45.399
 pw_poisson_solve                    52  9.0    1.210    1.308   43.646   43.660
 xc_pw_divergence                    51 11.0    0.002    0.003   26.203   32.352
 xc_rho_set_and_dset_create          51 11.0    0.648    0.744   29.715   32.124
 ps_wavelet_solve                    52 10.0   21.426   21.960   24.341   24.380
 mp_alltoall_z22v                  1083 15.0   15.235   21.842   15.235   21.842
 yz_to_x                            517 13.8    6.233    6.591   14.889   21.080
 qs_rho_update_rho_low               52  6.0    0.001    0.001   20.243   20.246
 calculate_rho_elec                  52  7.0    0.619    0.628   20.190   20.193
 x_to_yz                            566 14.1   11.173   11.410   17.752   17.903
 density_rs2pw                       52  8.0    0.003    0.003   16.222   16.410
 refine_ft                            4  3.0   12.066   12.401   12.066   12.401
 gspace_mixing                       50  6.0    0.595    0.604   11.519   11.520
 sum_up_and_integrate                52  9.0    0.001    0.001   11.382   11.397
 integrate_v_rspace                  52 10.0    0.002    0.002   11.093   11.129
 xc_functional_eval                 255 11.4    0.001    0.001    8.761   11.000
 pbe_lda_eval                       255 12.4    8.761   10.999    8.761   10.999
 potential_pw2rs                     52 11.0    0.031    0.034   10.534   10.570
 prepare_gapw_den                    52  9.0    0.001    0.001    8.814    8.926
 put_rho0_on_grid                    52 10.0    0.635    0.670    8.612    8.723
 hfx_ks_matrix                       52  9.0    0.002    0.002    7.964    7.985
 integrate_four_center               52 10.0    1.155    1.323    7.957    7.976
 qs_energies_properties               1  4.0    0.000    0.000    7.519    7.539
 post_scf_bandstructure               1  5.0    0.000    0.000    7.519    7.539
 gw                                   1  6.0    0.000    0.000    7.467    7.469
 -------------------------------------------------------------------------------

 The number of warnings for this run is : 0
 
 -------------------------------------------------------------------------------
  **** **** ******  **  PROGRAM ENDED AT                 2025-02-20 17:10:15.895
 ***** ** ***  *** **   PROGRAM RAN ON                              i03r08c04s11
 **    ****   ******    PROGRAM RAN BY                                   di75qec
 ***** **    ** ** **   PROGRAM PROCESS ID                               1848413
  **** **  *******  **  PROGRAM STOPPED IN /hppfs/scratch/09/di75qec/Hexatriene_
                                           rtbse_x_9.4317987
