 DBCSR| CPU Multiplication driver                                           XSMM (U)
 DBCSR| Multrec recursion limit                                              512 (U)
 DBCSR| Multiplication stack size                                           1000 (D)
 DBCSR| Maximum elements for images                                    UNLIMITED (U)
 DBCSR| Multiplicative factor virtual images                                   1 (U)
 DBCSR| Use multiplication densification                                       T (D)
 DBCSR| Multiplication size stacks                                             3 (U)
 DBCSR| Use memory pool for CPU allocation                                     F (U)
 DBCSR| Number of 3D layers                                               SINGLE (U)
 DBCSR| Use MPI memory allocation                                              F (U)
 DBCSR| Use RMA algorithm                                                      F (U)
 DBCSR| Use Communication thread                                               T (U)
 DBCSR| Communication thread load                                             83 (D)
 DBCSR| MPI: My process id                                                     0
 DBCSR| MPI: Number of processes                                             144
 DBCSR| OMP: Current number of threads                                         2
 DBCSR| OMP: Max number of threads                                             2
 DBCSR| Split modifier for TAS multiplication algorithm                  1.0E+00 (U)


  **** **** ******  **  PROGRAM STARTED AT               2025-02-10 18:17:03.191
 ***** ** ***  *** **   PROGRAM STARTED ON                          i04r04c01s02
 **    ****   ******    PROGRAM STARTED BY                               di75qec
 ***** **    ** ** **   PROGRAM PROCESS ID                               1312709
  **** **  *******  **  PROGRAM STARTED IN /hppfs/scratch/09/di75qec/Hexatriene_
                                           rtbse_z_7.4280787

 CP2K| version string:                 CP2K version 2025.1 (Development Version)
 CP2K| source code revision number:                                  git:26096ef
 CP2K| cp2kflags: omp libint fftw3 libxc parallel scalapack xsmm max_contr=4    
 CP2K| is freely available from                            https://www.cp2k.org/
 CP2K| Program compiled at                       Mon 10 Feb 2025 05:11:29 PM CET
 CP2K| Program compiled on                                               login04
 CP2K| Program compiled for                                        Supermuc-foss
 CP2K| Data directory path               /dss/dsshome1/09/di75qec/CP2K-foss/data
 CP2K| Input file name                                                 rtbse.inp

 GLOBAL| Force Environment number                                              1
 GLOBAL| Basis set file name                                         aug-cc-pvdz
 GLOBAL| Potential file name                                      ALL_POTENTIALS
 GLOBAL| MM Potential file name                                     MM_POTENTIAL
 GLOBAL| Coordinate file name                                          coord.xyz
 GLOBAL| Method name                                                        CP2K
 GLOBAL| Project name                                                 Hexatriene
 GLOBAL| Run type                                                 RT_PROPAGATION
 GLOBAL| FFT library                                                       FFTW3
 GLOBAL| Diagonalization library                                       ScaLAPACK
 GLOBAL| DGEMM library                                                      BLAS
 GLOBAL| Orthonormality check for eigenvectors                          DISABLED
 GLOBAL| Matrix multiplication library                                 ScaLAPACK
 GLOBAL| All-to-all communication in single precision                          F
 GLOBAL| FFTs using library dependent lengths                                  F
 GLOBAL| Grid backend                                                       AUTO
 GLOBAL| Global print level                                               MEDIUM
 GLOBAL| MPI I/O enabled                                                       T
 GLOBAL| Total number of message passing processes                           144
 GLOBAL| Number of threads for this process                                    2
 GLOBAL| This output is from process                                           0
 GLOBAL| OpenMP stack size per thread (OMP_STACKSIZE)                    default
 GLOBAL| CPU model name             Intel(R) Xeon(R) Platinum 8174 CPU @ 3.10GHz
 GLOBAL| CPUID                                                              1003
 GLOBAL| Compiled for CPUID                                                    0

 *** HINT in environment.F:928 :: The compiler target flags (generic) used ***
 *** to build this binary cannot exploit all extensions of this CPU model  ***
 *** (x86_avx512). Consider compiler target flags as part of FCFLAGS and   ***
 *** CFLAGS (ARCH file).                                                   ***


 MEMORY| system memory details [Kb]
 MEMORY|                        rank 0           min           max       average
 MEMORY| MemTotal             98436660      98436660      98436664      98436663
 MEMORY| MemFree              82730932      81923876      82730932      82219858
 MEMORY| Buffers                     0             0             0             0
 MEMORY| Cached                2649768       2649768       2684492       2671601
 MEMORY| Slab                  1160780       1160780       1270964       1237667
 MEMORY| SReclaimable           264808        263784        288480        273749
 MEMORY| MemLikelyFree        85645508      84865152      85645508      85165208


 *** Fundamental physical constants (SI units) ***

 *** Literature: B. J. Mohr and B. N. Taylor,
 ***             CODATA recommended values of the fundamental physical
 ***             constants: 2006, Web Version 5.1
 ***             http://physics.nist.gov/constants

 Speed of light in vacuum [m/s]                             2.99792458000000E+08
 Magnetic constant or permeability of vacuum [N/A**2]       1.25663706143592E-06
 Electric constant or permittivity of vacuum [F/m]          8.85418781762039E-12
 Planck constant (h) [J*s]                                  6.62606896000000E-34
 Planck constant (h-bar) [J*s]                              1.05457162825177E-34
 Elementary charge [C]                                      1.60217648700000E-19
 Electron mass [kg]                                         9.10938215000000E-31
 Electron g factor [ ]                                     -2.00231930436220E+00
 Proton mass [kg]                                           1.67262163700000E-27
 Fine-structure constant                                    7.29735253760000E-03
 Rydberg constant [1/m]                                     1.09737315685270E+07
 Avogadro constant [1/mol]                                  6.02214179000000E+23
 Boltzmann constant [J/K]                                   1.38065040000000E-23
 Atomic mass unit [kg]                                      1.66053878200000E-27
 Bohr radius [m]                                            5.29177208590000E-11

 *** Conversion factors ***

 [u] -> [a.u.]                                              1.82288848426455E+03
 [Angstrom] -> [Bohr] = [a.u.]                              1.88972613288564E+00
 [a.u.] = [Bohr] -> [Angstrom]                              5.29177208590000E-01
 [a.u.] -> [s]                                              2.41888432650478E-17
 [a.u.] -> [fs]                                             2.41888432650478E-02
 [a.u.] -> [J]                                              4.35974393937059E-18
 [a.u.] -> [N]                                              8.23872205491840E-08
 [a.u.] -> [K]                                              3.15774647902944E+05
 [a.u.] -> [kJ/mol]                                         2.62549961709828E+03
 [a.u.] -> [kcal/mol]                                       6.27509468713739E+02
 [a.u.] -> [Pa]                                             2.94210107994716E+13
 [a.u.] -> [bar]                                            2.94210107994716E+08
 [a.u.] -> [atm]                                            2.90362800883016E+08
 [a.u.] -> [eV]                                             2.72113838565563E+01
 [a.u.] -> [Hz]                                             6.57968392072181E+15
 [a.u.] -> [1/cm] (wave numbers)                            2.19474631370540E+05
 [a.u./Bohr**2] -> [1/cm]                                   5.14048714338585E+03
 

 CELL_TOP| Volume [angstrom^3]:                                      8000.000000
 CELL_TOP| Vector a [angstrom    20.000     0.000     0.000   |a| =    20.000000
 CELL_TOP| Vector b [angstrom     0.000    20.000     0.000   |b| =    20.000000
 CELL_TOP| Vector c [angstrom     0.000     0.000    20.000   |c| =    20.000000
 CELL_TOP| Angle (b,c), alpha [degree]:                                90.000000
 CELL_TOP| Angle (a,c), beta  [degree]:                                90.000000
 CELL_TOP| Angle (a,b), gamma [degree]:                                90.000000
 CELL_TOP| Numerically orthorhombic:                                         YES
 CELL_TOP| Periodicity                                                      NONE

 GENERATE|  Preliminary Number of Bonds generated:                             0
 GENERATE|  Achieved consistency in connectivity generation.

 CELL| Volume [angstrom^3]:                                          8000.000000
 CELL| Vector a [angstrom]:      20.000     0.000     0.000   |a| =    20.000000
 CELL| Vector b [angstrom]:       0.000    20.000     0.000   |b| =    20.000000
 CELL| Vector c [angstrom]:       0.000     0.000    20.000   |c| =    20.000000
 CELL| Angle (b,c), alpha [degree]:                                    90.000000
 CELL| Angle (a,c), beta  [degree]:                                    90.000000
 CELL| Angle (a,b), gamma [degree]:                                    90.000000
 CELL| Numerically orthorhombic:                                             YES
 CELL| Periodicity                                                          NONE

 CELL_REF| Volume [angstrom^3]:                                      8000.000000
 CELL_REF| Vector a [angstrom    20.000     0.000     0.000   |a| =    20.000000
 CELL_REF| Vector b [angstrom     0.000    20.000     0.000   |b| =    20.000000
 CELL_REF| Vector c [angstrom     0.000     0.000    20.000   |c| =    20.000000
 CELL_REF| Angle (b,c), alpha [degree]:                                90.000000
 CELL_REF| Angle (a,c), beta  [degree]:                                90.000000
 CELL_REF| Angle (a,b), gamma [degree]:                                90.000000
 CELL_REF| Numerically orthorhombic:                                         YES
 CELL_REF| Periodicity                                                      NONE

 *******************************************************************************
 *******************************************************************************
 **                                                                           **
 **     #####                         ##              ##                      **
 **    ##   ##            ##          ##              ##                      **
 **   ##     ##                       ##            ######                    **
 **   ##     ##  ##   ##  ##   #####  ##  ##   ####   ##    #####    #####    **
 **   ##     ##  ##   ##  ##  ##      ## ##   ##      ##   ##   ##  ##   ##   **
 **   ##  ## ##  ##   ##  ##  ##      ####     ###    ##   ######   ######    **
 **    ##  ###   ##   ##  ##  ##      ## ##      ##   ##   ##       ##        **
 **     #######   #####   ##   #####  ##  ##  ####    ##    #####   ##        **
 **           ##                                                    ##        **
 **                                                                           **
 **                                                ... make the atoms dance   **
 **                                                                           **
 **            Copyright (C) by CP2K developers group (2000-2025)             **
 **                      J. Chem. Phys. 152, 194103 (2020)                    **
 **                                                                           **
 *******************************************************************************

 DFT| Spin restricted Kohn-Sham (RKS) calculation                            RKS
 DFT| Multiplicity                                                             1
 DFT| Number of spin states                                                    1
 DFT| Charge                                                                   0
 DFT| Self-interaction correction (SIC)                                       NO
 DFT| Cutoffs: density                                              1.000000E-10
 DFT|          gradient                                             1.000000E-10
 DFT|          tau                                                  1.000000E-10
 DFT|          cutoff_smoothing_range                               0.000000E+00
 DFT| XC density smoothing                                                  NONE
 DFT| XC derivatives                                                          PW

 FUNCTIONAL| PBE:
 FUNCTIONAL| J.P.Perdew, K.Burke, M.Ernzerhof, Phys. Rev. Letter, vol. 77, n 18,
 FUNCTIONAL|  pp. 3865-3868, (1996)sx=0.750sc=1.000{spin unpolarized}           


 QS| Method:                                                                GAPW
 QS| Density plane wave grid type                        NON-SPHERICAL FULLSPACE
 QS| Number of grid levels:                                                    4
 QS| Density cutoff [a.u.]:                                                300.0
 QS| Multi grid cutoff [a.u.]: 1) grid level                               300.0
 QS|                           2) grid level                               100.0
 QS|                           3) grid level                                33.3
 QS|                           4) grid level                                11.1
 QS| Grid level progression factor:                                          3.0
 QS| Relative density cutoff [a.u.]:                                        30.0
 QS| Interaction thresholds: eps_pgf_orb:                                1.0E-05
 QS|                         eps_filter_matrix:                          0.0E+00
 QS|                         eps_core_charge:                            1.0E-12
 QS|                         eps_rho_gspace:                             1.0E-10
 QS|                         eps_rho_rspace:                             1.0E-10
 QS|                         eps_gvg_rspace:                             1.0E-05
 QS|                         eps_ppl:                                    1.0E-02
 QS|                         eps_ppnl:                                   1.0E-07
 QS| GAPW|      One center basis from orbital basis primitives
 QS| GAPW|                   eps_fit:                                    1.0E-04
 QS| GAPW|                   eps_iso:                                    1.0E-12
 QS| GAPW|                   eps_svd:                                    1.0E-08
 QS| GAPW|                   eps_cpc:                                    1.0E-10
 QS| GAPW|   atom-r-grid: quadrature:                                     GC_LOG
 QS| GAPW|      atom-s-grid:  max l :                                          4
 QS| GAPW|      max_l_rho0 :                                                   2


 ATOMIC KIND INFORMATION

  1. Atomic kind: H                                     Number of atoms:       8

     Orbital Basis Set                                               aug-cc-pvdz

       Number of orbital shell sets:                                           4
       Number of orbital shells:                                               5
       Number of primitive Cartesian functions:                                7
       Number of Cartesian basis functions:                                    9
       Number of spherical basis functions:                                    9
       Norm type:                                                              2

       Normalised Cartesian orbitals:

                        Set   Shell   Orbital            Exponent    Coefficient

                          1       1    1s               13.010000       0.096107
                                                         1.962000       0.163020
                                                         0.444600       0.185545
                                                         0.122000       0.073744

                          1       2    2s               13.010000       0.000000
                                                         1.962000       0.000000
                                                         0.444600       0.000000
                                                         0.122000       0.147123

                          2       1    1s                0.029740       0.051041

                          3       1    1px               0.727000       0.956881
                          3       1    1py               0.727000       0.956881
                          3       1    1pz               0.727000       0.956881

                          4       1    1px               0.141000       0.123158
                          4       1    1py               0.141000       0.123158
                          4       1    1pz               0.141000       0.123158

     RI Auxiliary Basis Set                                    aug-cc-pvtz-rifit

       Number of orbital shell sets:                                          14
       Number of orbital shells:                                              14
       Number of primitive Cartesian functions:                               14
       Number of Cartesian basis functions:                                   55
       Number of spherical basis functions:                                   46
       Norm type:                                                              2

       Normalised Cartesian orbitals:

                        Set   Shell   Orbital            Exponent    Coefficient

                          1       1    1s                8.512828       3.551939

                          2       1    1s                1.873089       1.141114

                          3       1    1s                0.526184       0.440315

                          4       1    1s                0.289740       0.281460

                          5       1    1s                0.127194       0.151796

                          6       1    1px               2.372549       4.197195
                          6       1    1py               2.372549       4.197195
                          6       1    1pz               2.372549       4.197195

                          7       1    1px               1.180408       1.753802
                          7       1    1py               1.180408       1.753802
                          7       1    1pz               1.180408       1.753802

                          8       1    1px               0.603822       0.758711
                          8       1    1py               0.603822       0.758711
                          8       1    1pz               0.603822       0.758711

                          9       1    1px               0.235513       0.233861
                          9       1    1py               0.235513       0.233861
                          9       1    1pz               0.235513       0.233861

                         10       1    1dx2              1.809637       4.647235
                         10       1    1dxy              1.809637       8.049248
                         10       1    1dxz              1.809637       8.049248
                         10       1    1dy2              1.809637       4.647235
                         10       1    1dyz              1.809637       8.049248
                         10       1    1dz2              1.809637       4.647235

                         11       1    1dx2              1.143973       2.082748
                         11       1    1dxy              1.143973       3.607426
                         11       1    1dxz              1.143973       3.607426
                         11       1    1dy2              1.143973       2.082748
                         11       1    1dyz              1.143973       3.607426
                         11       1    1dz2              1.143973       2.082748

                         12       1    1dx2              0.436654       0.386056
                         12       1    1dxy              0.436654       0.668668
                         12       1    1dxz              0.436654       0.668668
                         12       1    1dy2              0.436654       0.386056
                         12       1    1dyz              0.436654       0.668668
                         12       1    1dz2              0.436654       0.386056

                         13       1    1fx3              1.806306       5.568458
                         13       1    1fx2y             1.806306      12.451451
                         13       1    1fx2z             1.806306      12.451451
                         13       1    1fxy2             1.806306      12.451451
                         13       1    1fxyz             1.806306      21.566546
                         13       1    1fxz2             1.806306      12.451451
                         13       1    1fy3              1.806306       5.568458
                         13       1    1fy2z             1.806306      12.451451
                         13       1    1fyz2             1.806306      12.451451
                         13       1    1fz3              1.806306       5.568458

                         14       1    1fx3              0.252978       0.066817
                         14       1    1fx2y             0.252978       0.149408
                         14       1    1fx2z             0.252978       0.149408
                         14       1    1fxy2             0.252978       0.149408
                         14       1    1fxyz             0.252978       0.258783
                         14       1    1fxz2             0.252978       0.149408
                         14       1    1fy3              0.252978       0.066817
                         14       1    1fy2z             0.252978       0.149408
                         14       1    1fyz2             0.252978       0.149408
                         14       1    1fz3              0.252978       0.066817

       Atomic covalent radius [Angstrom]:                                  0.320

       Atomic van der Waals radius [Angstrom]:                             1.090

     The atoms of this atomic kind are PAW atoms (GAPW):
       Hard Gaussian function radius:                                      1.200
       Rho0 radius:                                                        1.200
       Maximum GTO radius used for PAW projector construction:            24.566

     GAPW Soft Basis Set                                        aug-cc-pvdz_soft

       Number of orbital shell sets:                                           4
       Number of orbital shells:                                               5
       Number of primitive Cartesian functions:                                6
       Number of Cartesian basis functions:                                    9
       Number of spherical basis functions:                                    9
       Norm type:                                                              2

       Normalised Cartesian orbitals:

                        Set   Shell   Orbital            Exponent    Coefficient

                          1       1    1s                1.962000       0.163020
                                                         0.444600       0.185545
                                                         0.122000       0.073744

                          1       2    2s                1.962000       0.000000
                                                         0.444600       0.000000
                                                         0.122000       0.147123

                          2       1    1s                0.029740       0.051041

                          3       1    1px               0.727000       0.956881
                          3       1    1py               0.727000       0.956881
                          3       1    1pz               0.727000       0.956881

                          4       1    1px               0.141000       0.123158
                          4       1    1py               0.141000       0.123158
                          4       1    1pz               0.141000       0.123158

     AE Potential information for                                            ALL

       Description:                                       All-electron potential
                                          Krack, Parrinello, PCCP 2, 2105 (2000)

       Gaussian exponent of the core charge distribution:              12.500000
       Electronic configuration (s p d ...):                           1   0   0

  2. Atomic kind: C                                     Number of atoms:       6

     Orbital Basis Set                                               aug-cc-pvdz

       Number of orbital shell sets:                                           6
       Number of orbital shells:                                               9
       Number of primitive Cartesian functions:                               17
       Number of Cartesian basis functions:                                   25
       Number of spherical basis functions:                                   23
       Norm type:                                                              2

       Normalised Cartesian orbitals:

                        Set   Shell   Orbital            Exponent    Coefficient

                          1       1    1s             6665.000000       0.363803
                                                      1000.000000       0.675392
                                                       228.000000       1.132301
                                                        64.710000       1.654004
                                                        21.060000       1.924978
                                                         7.495000       1.448149
                                                         2.797000       0.439427
                                                         0.521500       0.006650
                                                         0.159600      -0.000574

                          1       2    2s             6665.000000      -0.076756
                                                      1000.000000      -0.146257
                                                       228.000000      -0.239407
                                                        64.710000      -0.379069
                                                        21.060000      -0.448104
                                                         7.495000      -0.484201
                                                         2.797000      -0.196168
                                                         0.521500       0.238162
                                                         0.159600       0.104468

                          1       3    3s             6665.000000       0.000000
                                                      1000.000000       0.000000
                                                       228.000000       0.000000
                                                        64.710000       0.000000
                                                        21.060000       0.000000
                                                         7.495000       0.000000
                                                         2.797000       0.000000
                                                         0.521500       0.000000
                                                         0.159600       0.179964

                          2       1    1s                0.046900       0.071827

                          3       1    1px               9.439000       0.898722
                                                         2.002000       0.711071
                                                         0.545600       0.339917
                                                         0.151700       0.063270
                          3       1    1py               9.439000       0.898722
                                                         2.002000       0.711071
                                                         0.545600       0.339917
                                                         0.151700       0.063270
                          3       1    1pz               9.439000       0.898722
                                                         2.002000       0.711071
                                                         0.545600       0.339917
                                                         0.151700       0.063270

                          3       2    2px               9.439000       0.000000
                                                         2.002000       0.000000
                                                         0.545600       0.000000
                                                         0.151700       0.134950
                          3       2    2py               9.439000       0.000000
                                                         2.002000       0.000000
                                                         0.545600       0.000000
                                                         0.151700       0.134950
                          3       2    2pz               9.439000       0.000000
                                                         2.002000       0.000000
                                                         0.545600       0.000000
                                                         0.151700       0.134950

                          4       1    1px               0.040410       0.025826
                          4       1    1py               0.040410       0.025826
                          4       1    1pz               0.040410       0.025826

                          5       1    1dx2              0.550000       0.578155
                          5       1    1dxy              0.550000       1.001394
                          5       1    1dxz              0.550000       1.001394
                          5       1    1dy2              0.550000       0.578155
                          5       1    1dyz              0.550000       1.001394
                          5       1    1dz2              0.550000       0.578155

                          6       1    1dx2              0.151000       0.060203
                          6       1    1dxy              0.151000       0.104275
                          6       1    1dxz              0.151000       0.104275
                          6       1    1dy2              0.151000       0.060203
                          6       1    1dyz              0.151000       0.104275
                          6       1    1dz2              0.151000       0.060203

     RI Auxiliary Basis Set                                    aug-cc-pvtz-rifit

       Number of orbital shell sets:                                          28
       Number of orbital shells:                                              28
       Number of primitive Cartesian functions:                               28
       Number of Cartesian basis functions:                                  136
       Number of spherical basis functions:                                  106
       Norm type:                                                              2

       Normalised Cartesian orbitals:

                        Set   Shell   Orbital            Exponent    Coefficient

                          1       1    1s              280.556612      48.856851

                          2       1    1s               60.230247      15.408880

                          3       1    1s               22.116651       7.268581

                          4       1    1s                6.862093       3.021708

                          5       1    1s                1.562255       0.995919

                          6       1    1s                0.912450       0.665376

                          7       1    1s                0.502749       0.425524

                          8       1    1s                0.215823       0.225675

                          9       1    1s                0.101536       0.128196

                         10       1    1px              24.231865      76.634379
                         10       1    1py              24.231865      76.634379
                         10       1    1pz              24.231865      76.634379

                         11       1    1px               6.476451      14.726905
                         11       1    1py               6.476451      14.726905
                         11       1    1pz               6.476451      14.726905

                         12       1    1px               2.129088       3.665914
                         12       1    1py               2.129088       3.665914
                         12       1    1pz               2.129088       3.665914

                         13       1    1px               1.037564       1.492652
                         13       1    1py               1.037564       1.492652
                         13       1    1pz               1.037564       1.492652

                         14       1    1px               0.549413       0.674238
                         14       1    1py               0.549413       0.674238
                         14       1    1pz               0.549413       0.674238

                         15       1    1px               0.281527       0.292307
                         15       1    1py               0.281527       0.292307
                         15       1    1pz               0.281527       0.292307

                         16       1    1px               0.115060       0.095520
                         16       1    1py               0.115060       0.095520
                         16       1    1pz               0.115060       0.095520

                         17       1    1dx2              9.718981      88.053322
                         17       1    1dxy              9.718981     152.512828
                         17       1    1dxz              9.718981     152.512828
                         17       1    1dy2              9.718981      88.053322
                         17       1    1dyz              9.718981     152.512828
                         17       1    1dz2              9.718981      88.053322

                         18       1    1dx2              3.035148      11.487463
                         18       1    1dxy              3.035148      19.896869
                         18       1    1dxz              3.035148      19.896869
                         18       1    1dy2              3.035148      11.487463
                         18       1    1dyz              3.035148      19.896869
                         18       1    1dz2              3.035148      11.487463

                         19       1    1dx2              1.467774       3.221535
                         19       1    1dxy              1.467774       5.579863
                         19       1    1dxz              1.467774       5.579863
                         19       1    1dy2              1.467774       3.221535
                         19       1    1dyz              1.467774       5.579863
                         19       1    1dz2              1.467774       3.221535

                         20       1    1dx2              0.573708       0.622471
                         20       1    1dxy              0.573708       1.078151
                         20       1    1dxz              0.573708       1.078151
                         20       1    1dy2              0.573708       0.622471
                         20       1    1dyz              0.573708       1.078151
                         20       1    1dz2              0.573708       0.622471

                         21       1    1dx2              0.290556       0.189261
                         21       1    1dxy              0.290556       0.327810
                         21       1    1dxz              0.290556       0.327810
                         21       1    1dy2              0.290556       0.189261
                         21       1    1dyz              0.290556       0.327810
                         21       1    1dz2              0.290556       0.189261

                         22       1    1dx2              0.148905       0.058749
                         22       1    1dxy              0.148905       0.101756
                         22       1    1dxz              0.148905       0.101756
                         22       1    1dy2              0.148905       0.058749
                         22       1    1dyz              0.148905       0.101756
                         22       1    1dz2              0.148905       0.058749

                         23       1    1fx3              2.275620       9.363300
                         23       1    1fx2y             2.275620      20.936975
                         23       1    1fx2z             2.275620      20.936975
                         23       1    1fxy2             2.275620      20.936975
                         23       1    1fxyz             2.275620      36.263904
                         23       1    1fxz2             2.275620      20.936975
                         23       1    1fy3              2.275620       9.363300
                         23       1    1fy2z             2.275620      20.936975
                         23       1    1fyz2             2.275620      20.936975
                         23       1    1fz3              2.275620       9.363300

                         24       1    1fx3              1.196890       2.205852
                         24       1    1fx2y             1.196890       4.932435
                         24       1    1fx2z             1.196890       4.932435
                         24       1    1fxy2             1.196890       4.932435
                         24       1    1fxyz             1.196890       8.543228
                         24       1    1fxz2             1.196890       4.932435
                         24       1    1fy3              1.196890       2.205852
                         24       1    1fy2z             1.196890       4.932435
                         24       1    1fyz2             1.196890       4.932435
                         24       1    1fz3              1.196890       2.205852

                         25       1    1fx3              0.541575       0.370413
                         25       1    1fx2y             0.541575       0.828268
                         25       1    1fx2z             0.541575       0.828268
                         25       1    1fxy2             0.541575       0.828268
                         25       1    1fxyz             0.541575       1.434603
                         25       1    1fxz2             0.541575       0.828268
                         25       1    1fy3              0.541575       0.370413
                         25       1    1fy2z             0.541575       0.828268
                         25       1    1fyz2             0.541575       0.828268
                         25       1    1fz3              0.541575       0.370413

                         26       1    1fx3              0.201793       0.040178
                         26       1    1fx2y             0.201793       0.089842
                         26       1    1fx2z             0.201793       0.089842
                         26       1    1fxy2             0.201793       0.089842
                         26       1    1fxyz             0.201793       0.155610
                         26       1    1fxz2             0.201793       0.089842
                         26       1    1fy3              0.201793       0.040178
                         26       1    1fy2z             0.201793       0.089842
                         26       1    1fyz2             0.201793       0.089842
                         26       1    1fz3              0.201793       0.040178

                         27       1    1gx4              1.216610       1.908103
                         27       1    1gx3y             1.216610       5.048367
                         27       1    1gx3z             1.216610       5.048367
                         27       1    1gx2y2            1.216610       6.517414
                         27       1    1gx2yz            1.216610      11.288491
                         27       1    1gx2z2            1.216610       6.517414
                         27       1    1gxy3             1.216610       5.048367
                         27       1    1gxy2z            1.216610      11.288491
                         27       1    1gxyz2            1.216610      11.288491
                         27       1    1gxz3             1.216610       5.048367
                         27       1    1gy4              1.216610       1.908103
                         27       1    1gy3z             1.216610       5.048367
                         27       1    1gy2z2            1.216610       6.517414
                         27       1    1gyz3             1.216610       5.048367
                         27       1    1gz4              1.216610       1.908103

                         28       1    1gx4              0.435998       0.113505
                         28       1    1gx3y             0.435998       0.300307
                         28       1    1gx3z             0.435998       0.300307
                         28       1    1gx2y2            0.435998       0.387695
                         28       1    1gx2yz            0.435998       0.671507
                         28       1    1gx2z2            0.435998       0.387695
                         28       1    1gxy3             0.435998       0.300307
                         28       1    1gxy2z            0.435998       0.671507
                         28       1    1gxyz2            0.435998       0.671507
                         28       1    1gxz3             0.435998       0.300307
                         28       1    1gy4              0.435998       0.113505
                         28       1    1gy3z             0.435998       0.300307
                         28       1    1gy2z2            0.435998       0.387695
                         28       1    1gyz3             0.435998       0.300307
                         28       1    1gz4              0.435998       0.113505

       Atomic covalent radius [Angstrom]:                                  0.770

       Atomic van der Waals radius [Angstrom]:                             1.700

     The atoms of this atomic kind are PAW atoms (GAPW):
       Hard Gaussian function radius:                                      1.512
       Rho0 radius:                                                        1.512
       Maximum GTO radius used for PAW projector construction:            24.566

     GAPW Soft Basis Set                                        aug-cc-pvdz_soft

       Number of orbital shell sets:                                           6
       Number of orbital shells:                                               9
       Number of primitive Cartesian functions:                               10
       Number of Cartesian basis functions:                                   25
       Number of spherical basis functions:                                   23
       Norm type:                                                              2

       Normalised Cartesian orbitals:

                        Set   Shell   Orbital            Exponent    Coefficient

                          1       1    1s                2.797000       0.439427
                                                         0.521500       0.006650
                                                         0.159600      -0.000574

                          1       2    2s                2.797000      -0.196168
                                                         0.521500       0.238162
                                                         0.159600       0.104468

                          1       3    3s                2.797000       0.000000
                                                         0.521500       0.000000
                                                         0.159600       0.179964

                          2       1    1s                0.046900       0.071827

                          3       1    1px               2.002000       0.711071
                                                         0.545600       0.339917
                                                         0.151700       0.063270
                          3       1    1py               2.002000       0.711071
                                                         0.545600       0.339917
                                                         0.151700       0.063270
                          3       1    1pz               2.002000       0.711071
                                                         0.545600       0.339917
                                                         0.151700       0.063270

                          3       2    2px               2.002000       0.000000
                                                         0.545600       0.000000
                                                         0.151700       0.134950
                          3       2    2py               2.002000       0.000000
                                                         0.545600       0.000000
                                                         0.151700       0.134950
                          3       2    2pz               2.002000       0.000000
                                                         0.545600       0.000000
                                                         0.151700       0.134950

                          4       1    1px               0.040410       0.025826
                          4       1    1py               0.040410       0.025826
                          4       1    1pz               0.040410       0.025826

                          5       1    1dx2              0.550000       0.578155
                          5       1    1dxy              0.550000       1.001394
                          5       1    1dxz              0.550000       1.001394
                          5       1    1dy2              0.550000       0.578155
                          5       1    1dyz              0.550000       1.001394
                          5       1    1dz2              0.550000       0.578155

                          6       1    1dx2              0.151000       0.060203
                          6       1    1dxy              0.151000       0.104275
                          6       1    1dxz              0.151000       0.104275
                          6       1    1dy2              0.151000       0.060203
                          6       1    1dyz              0.151000       0.104275
                          6       1    1dz2              0.151000       0.060203

     AE Potential information for                                            ALL

       Description:                                       All-electron potential
                                          Krack, Parrinello, PCCP 2, 2105 (2000)

       Gaussian exponent of the core charge distribution:               4.109048
       Electronic configuration (s p d ...):                           4   2   0


 MOLECULE KIND INFORMATION


 All atoms are their own molecule, skipping detailed information


 TOTAL NUMBERS AND MAXIMUM NUMBERS

  Total number of            - Atomic kinds:                                   2
                             - Atoms:                                         14
                             - Shell sets:                                    68
                             - Shells:                                        94
                             - Primitive Cartesian functions:                158
                             - Cartesian basis functions:                    222
                             - Spherical basis functions:                    210

  Maximum angular momentum of the orbital basis functions:                     2


 MODULE QUICKSTEP: ATOMIC COORDINATES IN ANGSTROM

   Atom Kind Element         X             Y             Z       Z(eff)     Mass
      1    1 H     1      9.046223     11.207691     10.000000   1.0000   1.0079
      2    1 H     1     10.953777      8.792309     10.000000   1.0000   1.0079
      3    1 H     1     12.155816     10.952317     10.000000   1.0000   1.0079
      4    1 H     1      7.844184      9.047683     10.000000   1.0000   1.0079
      5    1 H     1     12.125769     13.402692     10.000000   1.0000   1.0079
      6    1 H     1      7.874231      6.597308     10.000000   1.0000   1.0079
      7    1 H     1     10.275642     13.397162     10.000000   1.0000   1.0079
      8    1 H     1      9.724358      6.602838     10.000000   1.0000   1.0079
      9    2 C     6     10.000000     10.676808     10.000000   6.0000  12.0107
     10    2 C     6     10.000000      9.323192     10.000000   6.0000  12.0107
     11    2 C     6     11.204938     11.485654     10.000000   6.0000  12.0107
     12    2 C     6      8.795062      8.514346     10.000000   6.0000  12.0107
     13    2 C     6     11.203567     12.831663     10.000000   6.0000  12.0107
     14    2 C     6      8.796433      7.168337     10.000000   6.0000  12.0107



 SCF PARAMETERS         Density guess:                                   RESTART
                        --------------------------------------------------------
                        max_scf:                                             200
                        max_scf_history:                                       0
                        max_diis:                                              4
                        --------------------------------------------------------
                        eps_scf:                                        1.00E-09
                        eps_scf_history:                                0.00E+00
                        eps_diis:                                       1.00E-01
                        eps_eigval:                                     1.00E-05
                        --------------------------------------------------------
                        level_shift [a.u.]:                             0.000000
                        added MOs                                       188    0
                        --------------------------------------------------------
                        Mixing method:                            BROYDEN_MIXING
                                                charge density mixing in g-space
                        --------------------------------------------------------
                        No outer SCF

 PW_GRID| Information for grid number                                          1
 PW_GRID| Grid distributed over                                   144 processors
 PW_GRID| Real space group dimensions                                   144    1
 PW_GRID| the grid is blocked:                                                NO
 PW_GRID| Cutoff [a.u.]                                                    300.0
 PW_GRID| spherical cutoff:                                                   NO
 PW_GRID|   Bounds   1           -150     149                Points:         300
 PW_GRID|   Bounds   2           -150     149                Points:         300
 PW_GRID|   Bounds   3           -150     149                Points:         300
 PW_GRID| Volume element (a.u.^3)  0.2000E-02     Volume (a.u.^3)     53986.6767
 PW_GRID| Grid span                                                    FULLSPACE
 PW_GRID|   Distribution                         Average         Max         Min
 PW_GRID|   G-Vectors                           187500.0      187500      187500
 PW_GRID|   G-Rays                                 625.0         625         625
 PW_GRID|   Real Space Points                   187500.0      270000      180000

 PW_GRID| Information for grid number                                          2
 PW_GRID| Number of the reference grid                                         1
 PW_GRID| Grid distributed over                                   144 processors
 PW_GRID| Real space group dimensions                                   144    1
 PW_GRID| the grid is blocked:                                                NO
 PW_GRID| Cutoff [a.u.]                                                    100.0
 PW_GRID| spherical cutoff:                                                   NO
 PW_GRID|   Bounds   1            -90      89                Points:         180
 PW_GRID|   Bounds   2            -90      89                Points:         180
 PW_GRID|   Bounds   3            -90      89                Points:         180
 PW_GRID| Volume element (a.u.^3)  0.9257E-02     Volume (a.u.^3)     53986.6767
 PW_GRID| Grid span                                                    FULLSPACE
 PW_GRID|   Distribution                         Average         Max         Min
 PW_GRID|   G-Vectors                            40500.0       40680       40320
 PW_GRID|   G-Rays                                 225.0         226         224
 PW_GRID|   Real Space Points                    40500.0       64800       32400

 PW_GRID| Information for grid number                                          3
 PW_GRID| Number of the reference grid                                         1
 PW_GRID| Grid distributed over                                   144 processors
 PW_GRID| Real space group dimensions                                    12   12
 PW_GRID| the grid is blocked:                                                NO
 PW_GRID| Cutoff [a.u.]                                                     33.3
 PW_GRID| spherical cutoff:                                                   NO
 PW_GRID|   Bounds   1            -50      49                Points:         100
 PW_GRID|   Bounds   2            -50      49                Points:         100
 PW_GRID|   Bounds   3            -50      49                Points:         100
 PW_GRID| Volume element (a.u.^3)  0.5399E-01     Volume (a.u.^3)     53986.6767
 PW_GRID| Grid span                                                    FULLSPACE
 PW_GRID|   Distribution                         Average         Max         Min
 PW_GRID|   G-Vectors                             6944.4        7100        6800
 PW_GRID|   G-Rays                                  69.4          71          68
 PW_GRID|   Real Space Points                     6944.4        8100        6400

 PW_GRID| Information for grid number                                          4
 PW_GRID| Number of the reference grid                                         1
 PW_GRID| Grid distributed over                                   144 processors
 PW_GRID| Real space group dimensions                                    12   12
 PW_GRID| the grid is blocked:                                                NO
 PW_GRID| Cutoff [a.u.]                                                     11.1
 PW_GRID| spherical cutoff:                                                   NO
 PW_GRID|   Bounds   1            -30      29                Points:          60
 PW_GRID|   Bounds   2            -30      29                Points:          60
 PW_GRID|   Bounds   3            -30      29                Points:          60
 PW_GRID| Volume element (a.u.^3)  0.2499         Volume (a.u.^3)     53986.6767
 PW_GRID| Grid span                                                    FULLSPACE
 PW_GRID|   Distribution                         Average         Max         Min
 PW_GRID|   G-Vectors                             1500.0        1560        1440
 PW_GRID|   G-Rays                                  25.0          26          24
 PW_GRID|   Real Space Points                     1500.0        1500        1500

 POISSON| Solver                                                         WAVELET
 POISSON| Wavelet| Scaling function                                           40
 POISSON| Periodicity                                                       NONE

 RS_GRID| Information for grid number                                          1
 RS_GRID|   Bounds   1           -150     149                Points:         300
 RS_GRID|   Bounds   2           -150     149                Points:         300
 RS_GRID|   Bounds   3           -150     149                Points:         300
 RS_GRID| Real space distribution over                                  4 groups
 RS_GRID| Real space distribution along direction                              1
 RS_GRID| Border size                                                         24
 RS_GRID| Real space distribution over                                  6 groups
 RS_GRID| Real space distribution along direction                              2
 RS_GRID| Border size                                                         24
 RS_GRID| Real space distribution over                                  6 groups
 RS_GRID| Real space distribution along direction                              3
 RS_GRID| Border size                                                         24
 RS_GRID|   Distribution                         Average         Max         Min
 RS_GRID|   Planes                                 123.0         123         123
 RS_GRID|   Distribution                         Average         Max         Min
 RS_GRID|   Planes                                  98.0          98          98
 RS_GRID|   Distribution                         Average         Max         Min
 RS_GRID|   Planes                                  98.0          98          98

 RS_GRID| Information for grid number                                          2
 RS_GRID|   Bounds   1            -90      89                Points:         180
 RS_GRID|   Bounds   2            -90      89                Points:         180
 RS_GRID|   Bounds   3            -90      89                Points:         180
 RS_GRID| Real space distribution over                                  4 groups
 RS_GRID| Real space distribution along direction                              1
 RS_GRID| Border size                                                         25
 RS_GRID| Real space distribution over                                  6 groups
 RS_GRID| Real space distribution along direction                              2
 RS_GRID| Border size                                                         25
 RS_GRID| Real space distribution over                                  6 groups
 RS_GRID| Real space distribution along direction                              3
 RS_GRID| Border size                                                         25
 RS_GRID|   Distribution                         Average         Max         Min
 RS_GRID|   Planes                                  95.0          95          95
 RS_GRID|   Distribution                         Average         Max         Min
 RS_GRID|   Planes                                  80.0          80          80
 RS_GRID|   Distribution                         Average         Max         Min
 RS_GRID|   Planes                                  80.0          80          80

 RS_GRID| Information for grid number                                          3
 RS_GRID|   Bounds   1            -50      49                Points:         100
 RS_GRID|   Bounds   2            -50      49                Points:         100
 RS_GRID|   Bounds   3            -50      49                Points:         100
 RS_GRID| Real space fully replicated
 RS_GRID| Group size                                                           1

 RS_GRID| Information for grid number                                          4
 RS_GRID|   Bounds   1            -30      29                Points:          60
 RS_GRID|   Bounds   2            -30      29                Points:          60
 RS_GRID|   Bounds   3            -30      29                Points:          60
 RS_GRID| Real space fully replicated
 RS_GRID| Group size                                                           1

  HFX_INFO| Replica ID:                                                        1
  HFX_INFO| FRACTION:                                               0.2500000000
  HFX_INFO| Interaction Potential:                                       COULOMB
  HFX_INFO| EPS_SCHWARZ:                                                 1.0E-10
  HFX_INFO| EPS_SCHWARZ_FORCES                                           1.0E-08
  HFX_INFO| EPS_STORAGE_SCALING:                                         1.0E+00
  HFX_INFO| NBINS:                                                            64
  HFX_INFO| BLOCK_SIZE:                                                        1
  HFX_INFO| Number of periodic shells considered:                           NONE
  HFX_INFO| Number of periodic cells considered:                            NONE


 Number of electrons:                                                         44
 Number of occupied orbitals:                                                 22
 Number of molecular orbitals:                                               210

 Number of orbital functions:                                                210
 Number of independent orbital functions:                                    210

 Extrapolation method: initial_guess


 SCF WAVEFUNCTION OPTIMIZATION

  Step     Update method      Time    Convergence         Total energy    Change
  ------------------------------------------------------------------------------

  HFX_MEM_INFO| Est. max. program size before HFX [MiB]:                     360
  HFX_MEM_INFO| Number of cart. primitive ERI's calculated:           1054613574
  HFX_MEM_INFO| Number of sph. ERI's calculated:                       285643988
  HFX_MEM_INFO| Number of sph. ERI's stored in-core:                   285643988
  HFX_MEM_INFO| Number of sph. ERI's stored on disk:                           0
  HFX_MEM_INFO| Number of sph. ERI's calculated on the fly:                    0
  HFX_MEM_INFO| Total memory consumption ERI's RAM [MiB]:                    676
  HFX_MEM_INFO| Whereof max-vals [MiB]:                                        3
  HFX_MEM_INFO| Total compression factor ERI's RAM:                         3.22
  HFX_MEM_INFO| Total memory consumption ERI's disk [MiB]:                     0
  HFX_MEM_INFO| Total compression factor ERI's disk:                        0.00
  HFX_MEM_INFO| Size of density/Fock matrix [MiB]:                             0
  HFX_MEM_INFO| Size of buffers [MiB]:                                         0
  HFX_MEM_INFO| Est. max. program size after HFX  [MiB]:                     600

     1 NoMix/Diag. 0.40E+00    2.5     1.6642E-09      -233.1292883385 -2.33E+02
     2 Broy./Diag. 0.40E+00    0.8     2.7074E-09      -233.1292883385 -3.07E-12
     3 Broy./Diag. 0.40E+00    0.8     1.7122E-09      -233.1292883385  2.53E-12
     4 Broy./Diag. 0.40E+00    0.8     2.5397E-09      -233.1292883385  1.96E-12
     5 Broy./Diag. 0.40E+00    0.8     6.9130E-10      -233.1292883385 -1.45E-12

  *** SCF run converged in     5 steps ***


  Electronic density on regular grids:        -32.7837385991       11.2162614009
  Core density on regular grids:               44.0000000000       -0.0000000000
  Hard and soft densities (Lebedev):         -292.6992984316     -281.4830365508
  Total Rho_soft + Rho1_hard - Rho1_soft      -44.0000004799
  Total charge density (r-space):              -0.0000004799
  Total Rho_soft + Rho0_soft (g-space):        -0.0000005475

  Overlap energy of the core charge distribution:               0.00001824423737
  Self energy of the core charge distribution:               -185.96027138526242
  Core Hamiltonian energy:                                    -40.17104494332357
  Hartree energy:                                              75.92835531164187
  Exchange-correlation energy:                                -10.61149158467160
  Hartree-Fock Exchange energy:                                -8.45940938816052

  GAPW| Exc from hard and soft atomic rho1:                   -16.08617731586107
  GAPW| local Eh = 1 center integrals:                        -47.76926727711304

  Total energy:                                              -233.12928833851299

 !-----------------------------------------------------------------------------!
                     Mulliken Population Analysis

 #  Atom  Element  Kind  Atomic population                           Net charge
       1     H        1          1.731859                             -0.731859
       2     H        1          1.731859                             -0.731859
       3     H        1          1.720621                             -0.720621
       4     H        1          1.720621                             -0.720621
       5     H        1          1.464783                             -0.464783
       6     H        1          1.464783                             -0.464783
       7     H        1          1.496123                             -0.496123
       8     H        1          1.496123                             -0.496123
       9     C        2          4.878439                              1.121561
      10     C        2          4.878439                              1.121561
      11     C        2          5.001240                              0.998760
      12     C        2          5.001240                              0.998760
      13     C        2          5.706933                              0.293067
      14     C        2          5.706933                              0.293067
 # Total charge                             44.000000                 -0.000000

 !-----------------------------------------------------------------------------!

 !-----------------------------------------------------------------------------!
                           Hirshfeld Charges

  #Atom  Element  Kind  Ref Charge     Population                    Net charge
      1       H      1       1.000          0.510                         0.490
      2       H      1       1.000          0.510                         0.490
      3       H      1       1.000          0.510                         0.490
      4       H      1       1.000          0.510                         0.490
      5       H      1       1.000          0.506                         0.494
      6       H      1       1.000          0.506                         0.494
      7       H      1       1.000          0.507                         0.493
      8       H      1       1.000          0.507                         0.493
      9       C      2       6.000          6.480                        -0.480
     10       C      2       6.000          6.480                        -0.480
     11       C      2       6.000          6.473                        -0.473
     12       C      2       6.000          6.473                        -0.473
     13       C      2       6.000          6.990                        -0.990
     14       C      2       6.000          6.990                        -0.990

  Total Charge                                                            0.047
 !-----------------------------------------------------------------------------!

 MOMENTS
  The electric/magnetic moments are written to file:
  Hexatriene-MOMENTS-moments-1.dat

  
 -------------------------------------------------------------------------------
 -                                                                             -
 -                          BANDSTRUCTURE CALCULATION                          -
 -                                                                             -
 -------------------------------------------------------------------------------
  
 Number of occupied molecular orbitals (MOs) = Number of occupied bands       22
 Number of unoccupied (= virtual) MOs = Number of unoccupied bands           188
 Number of Gaussian basis functions for MOs                                  210
 K-point mesh for the density of states (DOS) and the self-energy      1   1   1
  
 -------------------------------------------------------------------------------
 -                                                                             -
 -                              GW CALCULATION                                 -
 -                                                                             -
 -------------------------------------------------------------------------------
  
 Input: Number of time/freq. points                                           30
 Input: Filter threshold for sparse tensor operations                    1.0E-08
 Apply Hedin shift                                                             F
  
 Number of auxiliary Gaussian basis functions for , , W                   1004
 Cutoff radius for the truncated Coulomb operator in ^x:               2645.9 
 Cutoff radius for the truncated Coulomb operator in RI metric:            3.0 
 Regularization parameter of RI                                          0.0E+00
 Lattice sum size for V(k):                                                    3
  
 K-point mesh 1 for , , W                                            1   1   1
 K-point mesh 2 for , , W (for k-point extrapolation of W)           1   1   1
 Approximate the k-point extrapolation                                         F
 Group size for tensor operations                                            144
 
 Computed 3-center integrals (|P), execution time                        0.6 s
 Percentage of non-zero (|P)                                         100.000 %
 Max. distance between , in non-zero (|P)                              8.0 A
 Required memory if storing all 3-center integrals (|P)                   0 GB
 
 Number of i and j atoms in M_P(), N_Q():                               47
 Number of inner loop atoms for  in M_P = sum_ (|P) G_                14
 
 SCF direct band gap (eV)                                                   4.74
 Max. SCF eigval diff. (eV)                                            272392.67
 E-Range for minimax grid                                               57480.15
 Number of Pad parameters for analytic continuation:                          7
 
 
 Read W^MIC(i) from file for time point      1 / 30,    Execution time    0.0 s
 Read W^MIC(i) from file for time point      2 / 30,    Execution time    0.0 s
 Read W^MIC(i) from file for time point      3 / 30,    Execution time    0.0 s
 Read W^MIC(i) from file for time point      4 / 30,    Execution time    0.0 s
 Read W^MIC(i) from file for time point      5 / 30,    Execution time    0.0 s
 Read W^MIC(i) from file for time point      6 / 30,    Execution time    0.0 s
 Read W^MIC(i) from file for time point      7 / 30,    Execution time    0.0 s
 Read W^MIC(i) from file for time point      8 / 30,    Execution time    0.0 s
 Read W^MIC(i) from file for time point      9 / 30,    Execution time    0.0 s
 Read W^MIC(i) from file for time point     10 / 30,    Execution time    0.0 s
 Read W^MIC(i) from file for time point     11 / 30,    Execution time    0.0 s
 Read W^MIC(i) from file for time point     12 / 30,    Execution time    0.0 s
 Read W^MIC(i) from file for time point     13 / 30,    Execution time    0.0 s
 Read W^MIC(i) from file for time point     14 / 30,    Execution time    0.0 s
 Read W^MIC(i) from file for time point     15 / 30,    Execution time    0.0 s
 Read W^MIC(i) from file for time point     16 / 30,    Execution time    0.0 s
 Read W^MIC(i) from file for time point     17 / 30,    Execution time    0.0 s
 Read W^MIC(i) from file for time point     18 / 30,    Execution time    0.0 s
 Read W^MIC(i) from file for time point     19 / 30,    Execution time    0.0 s
 Read W^MIC(i) from file for time point     20 / 30,    Execution time    0.0 s
 Read W^MIC(i) from file for time point     21 / 30,    Execution time    0.0 s
 Read W^MIC(i) from file for time point     22 / 30,    Execution time    0.0 s
 Read W^MIC(i) from file for time point     23 / 30,    Execution time    0.0 s
 Read W^MIC(i) from file for time point     24 / 30,    Execution time    0.0 s
 Read W^MIC(i) from file for time point     25 / 30,    Execution time    0.0 s
 Read W^MIC(i) from file for time point     26 / 30,    Execution time    0.0 s
 Read W^MIC(i) from file for time point     27 / 30,    Execution time    0.0 s
 Read W^MIC(i) from file for time point     28 / 30,    Execution time    0.0 s
 Read W^MIC(i) from file for time point     29 / 30,    Execution time    0.0 s
 Read W^MIC(i) from file for time point     30 / 30,    Execution time    0.0 s
 
 Read W^MIC(f=0) from file for freq. point    1 /  1,    Execution time    0.0 s
 Read ^c(i,k=0) from file for time point    1 / 30,    Execution time    2.2 s
 Read ^c(i,k=0) from file for time point    2 / 30,    Execution time    0.0 s
 Read ^c(i,k=0) from file for time point    3 / 30,    Execution time    0.0 s
 Read ^c(i,k=0) from file for time point    4 / 30,    Execution time    0.0 s
 Read ^c(i,k=0) from file for time point    5 / 30,    Execution time    0.0 s
 Read ^c(i,k=0) from file for time point    6 / 30,    Execution time    0.0 s
 Read ^c(i,k=0) from file for time point    7 / 30,    Execution time    0.0 s
 Read ^c(i,k=0) from file for time point    8 / 30,    Execution time    0.0 s
 Read ^c(i,k=0) from file for time point    9 / 30,    Execution time    0.0 s
 Read ^c(i,k=0) from file for time point   10 / 30,    Execution time    0.0 s
 Read ^c(i,k=0) from file for time point   11 / 30,    Execution time    0.0 s
 Read ^c(i,k=0) from file for time point   12 / 30,    Execution time    0.0 s
 Read ^c(i,k=0) from file for time point   13 / 30,    Execution time    0.0 s
 Read ^c(i,k=0) from file for time point   14 / 30,    Execution time    0.0 s
 Read ^c(i,k=0) from file for time point   15 / 30,    Execution time    0.0 s
 Read ^c(i,k=0) from file for time point   16 / 30,    Execution time    0.0 s
 Read ^c(i,k=0) from file for time point   17 / 30,    Execution time    0.0 s
 Read ^c(i,k=0) from file for time point   18 / 30,    Execution time    0.0 s
 Read ^c(i,k=0) from file for time point   19 / 30,    Execution time    0.0 s
 Read ^c(i,k=0) from file for time point   20 / 30,    Execution time    0.0 s
 Read ^c(i,k=0) from file for time point   21 / 30,    Execution time    0.0 s
 Read ^c(i,k=0) from file for time point   22 / 30,    Execution time    0.0 s
 Read ^c(i,k=0) from file for time point   23 / 30,    Execution time    0.0 s
 Read ^c(i,k=0) from file for time point   24 / 30,    Execution time    0.0 s
 Read ^c(i,k=0) from file for time point   25 / 30,    Execution time    0.0 s
 Read ^c(i,k=0) from file for time point   26 / 30,    Execution time    0.0 s
 Read ^c(i,k=0) from file for time point   27 / 30,    Execution time    0.0 s
 Read ^c(i,k=0) from file for time point   28 / 30,    Execution time    0.0 s
 Read ^c(i,k=0) from file for time point   29 / 30,    Execution time    0.0 s
 Read ^c(i,k=0) from file for time point   30 / 30,    Execution time    0.0 s
 
 Sparsity of ^c(i,k=0): Percentage of skipped atom pairs:                0.0 %
 Retaining nl_3c for RTBSE

 
 SCF valence band maximum (eV):                                           -6.227
 SCF conduction band minimum (eV):                                        -1.488
 SCF indirect band gap (eV):                                               4.739
 SCF direct band gap (eV):                                                 4.739
 
 G0W0 valence band maximum (eV):                                          -7.687
 G0W0 conduction band minimum (eV):                                        0.558
 G0W0 indirect band gap (eV):                                              8.245
 G0W0 direct band gap (eV):                                                8.245
 
 Hartree-Fock with SCF orbitals valence band maximum (eV):                -7.529
 Hartree-Fock with SCF orbitals conduction band minimum (eV)               1.283
 Hartree-Fock with SCF orbitals indirect band gap (eV):                    8.812
 Hartree-Fock with SCF orbitals direct band gap (eV):                      8.812

 ENERGY| Total FORCE_EVAL ( QS ) energy [hartree]           -233.129288338512993
 RTBSE| Approximate size of the 3c integrals                       0.34E+003 MiB
 
 /-----------------------------------------------------------------------------\
 |                                                                             |
 |                    Real Time Bethe-Salpeter Propagation                     |
 |                                                                             |
 \-----------------------------------------------------------------------------/
 
 Exponential method                                                          BCH
 Reference Hamiltonian                                                      G0W0
 Apply delta pulse                                                             T


 *** WARNING in emd/rt_bse_io.F:482 :: Restart required but no info file ***
 *** found - starting from sim_step given in input                       ***


 *** WARNING in emd/rt_bse_io.F:508 :: Restart without some restart ***
 *** matrices - starting from SCF density.                          ***


 *** WARNING in emd/rt_bse_io.F:561 :: Restart without previous moments - ***
 *** unknown moments trace set to zero.                                   ***

 RTBSE| Applying delta pulse
 RTBSE| Delta pulse elements (a.u.) :   -0.0000E+000  -0.0000E+000  -0.1000E-003
 RTBSE| Metric difference after delta kick                       0.23618220E-003
 RTBSE| Simulation step         Convergence     Electron number  ETRS Iterations
 RTBSE|               0     0.11210012E-007     0.44000000E+002                2
 RTBSE| Simulation step         Convergence     Electron number  ETRS Iterations
 RTBSE|               1     0.41775768E-008     0.44000000E+002                2
 RTBSE| Simulation step         Convergence     Electron number  ETRS Iterations
 RTBSE|               2     0.92552509E-008     0.44000000E+002                2
 RTBSE| Simulation step         Convergence     Electron number  ETRS Iterations
 RTBSE|               3     0.85919825E-008     0.44000000E+002                2
 RTBSE| Simulation step         Convergence     Electron number  ETRS Iterations
 RTBSE|               4     0.46458029E-008     0.44000000E+002                2
 RTBSE| Simulation step         Convergence     Electron number  ETRS Iterations
 RTBSE|               5     0.36201582E-008     0.44000000E+002                2
 RTBSE| Simulation step         Convergence     Electron number  ETRS Iterations
 RTBSE|               6     0.12794665E-007     0.44000000E+002                2
[...]
 flops    92 x    76 x    92              2573056       0.0%    100.0%      0.0%     
 flops     9 x     9 x    32              6718464       0.0%    100.0%      0.0%     
 flops    46 x    76 x    92              7719168       0.0%    100.0%      0.0%     
 flops    46 x    76 x    46              7719168       0.0%    100.0%      0.0%     
 flops    92 x    64 x    46              8667136       0.0%    100.0%      0.0%     
 flops    92 x    64 x    92              8667136       0.0%    100.0%      0.0%     
 flops    92 x    76 x   106              8893824       0.0%    100.0%      0.0%     
 flops     9 x    23 x    32             11446272       0.0%    100.0%      0.0%     
 flops    23 x     9 x    32             11446272       0.0%    100.0%      0.0%     
 flops   106 x    76 x    46             17787648       0.0%    100.0%      0.0%     
 flops   106 x    76 x    92             17787648       0.0%    100.0%      0.0%     
 flops    92 x    96 x    46             22751232       0.0%    100.0%      0.0%     
 flops    92 x    96 x    92             22751232       0.0%    100.0%      0.0%     
 flops    23 x    23 x    32             25595136       0.0%    100.0%      0.0%     
 flops    46 x    64 x    46             26001408       0.0%    100.0%      0.0%     
 flops    46 x    64 x    92             26001408       0.0%    100.0%      0.0%     
 flops    46 x    76 x   106             26681472       0.0%    100.0%      0.0%     
 flops    92 x    64 x   106             29958144       0.0%    100.0%      0.0%     
 flops   106 x    64 x    92             59916288       0.0%    100.0%      0.0%     
 flops   106 x    64 x    46             59916288       0.0%    100.0%      0.0%     
 flops   106 x    76 x   106             61483392       0.0%    100.0%      0.0%     
 flops    46 x    96 x    46             68253696       0.0%    100.0%      0.0%     
 flops    46 x    96 x    92             68253696       0.0%    100.0%      0.0%     
 flops    92 x    96 x   106             78640128       0.0%    100.0%      0.0%     
 flops    46 x    64 x   106             89874432       0.0%    100.0%      0.0%     
 flops   106 x    96 x    46            157280256       0.0%    100.0%      0.0%     
 flops   106 x    96 x    92            157280256       0.0%    100.0%      0.0%     
 flops   106 x    64 x   106            207101952       0.0%    100.0%      0.0%     
 flops    46 x    96 x   106            235920384       0.0%    100.0%      0.0%     
 flops   106 x    96 x   106            543642624       0.0%    100.0%      0.0%     
 flops inhomo. stacks                           0       0.0%      0.0%      0.0%
 flops total                         2.087300E+09       0.0%    100.0%      0.0%
 flops max/rank                     22.075608E+06       0.0%    100.0%      0.0%
 matmuls inhomo. stacks                         0       0.0%      0.0%      0.0%
 matmuls total                               6478       0.0%    100.0%      0.0%
 number of processed stacks                  6186       0.0%    100.0%      0.0%
 average stack size                                     0.0       1.0       0.0
 marketing flops                     2.037679E+09
 -------------------------------------------------------------------------------
 # multiplications                              8
 max memory usage/rank             952.258560E+06
 # max total images/rank                        1
 # max 3D layers                                1
 # MPI messages exchanged                   25344
 MPI messages size (bytes):
  total size                       228.452576E+06
  min size                           0.000000E+00
  max size                          89.888000E+03
  average size                       9.014069E+03
 MPI breakdown and total messages size (bytes):
             size <=      128                9372                        0
       128 < size <=     8192               12804                 51041760
      8192 < size <=    32768                 396                  8355072
     32768 < size <=   131072                2772                169055744
    131072 < size <=  4194304                   0                        0
   4194304 < size <= 16777216                   0                        0
  16777216 < size                               0                        0
 -------------------------------------------------------------------------------
 -                                                                             -
 -                      DBCSR MESSAGE PASSING PERFORMANCE                      -
 -                                                                             -
 -------------------------------------------------------------------------------
 ROUTINE             CALLS      AVE VOLUME [Bytes]
 MP_Bcast               40                     12.
 MP_Allreduce          155                     21.
 MP_Alltoall       4282887                  55076.
 MP_ISend              384                   5533.
 MP_IRecv              384                   5080.
 -------------------------------------------------------------------------------

 -------------------------------------------------------------------------------
 -                                                                             -
 -                                DBM STATISTICS                               -
 -                                                                             -
 -------------------------------------------------------------------------------
    M  x    N  x    K                                          COUNT     PERCENT
   ??  x  ???  x   ??                                     1427728896       3.67%
    ?  x    ?  x  ???                                     1211406336       3.11%
  ???  x    ?  x    ?                                     1211406336       3.11%
   ??  x   ??  x  ???                                     1200590208       3.08%
  ???  x   ??  x   ??                                     1200590208       3.08%
   ??  x  ???  x  ???                                     1070796672       2.75%
  ???  x  ???  x   ??                                     1070796672       2.75%
    ?  x    ?  x >999                                      908554752       2.33%
    ?  x   ??  x  ???                                      908554752       2.33%
   ??  x    ?  x  ???                                      908554752       2.33%
  ???  x    ?  x   ??                                      908554752       2.33%
  ???  x   ??  x    ?                                      908554752       2.33%
 >999  x    ?  x    ?                                      908554752       2.33%
  ???  x  ???  x  ???                                      803097504       2.06%
   ??  x   ??  x   ??                                      692232192       1.78%
    ?  x   ??  x >999                                      681416064       1.75%
   ??  x    ?  x >999                                      681416064       1.75%
 >999  x    ?  x   ??                                      681416064       1.75%
 >999  x   ??  x    ?                                      681416064       1.75%
   ??  x   ??  x >999                                      511062048       1.31%
 >999  x   ??  x   ??                                      511062048       1.31%
  ???  x   ??  x  ???                                      389380608       1.00%
    ?  x    ?  x    ?                                    19477142496      50.00%
 -------------------------------------------------------------------------------
 Memory consumption                            Number of allocations  Size [MiB]
 Host                                                             26          18
 -------------------------------------------------------------------------------

 -------------------------------------------------------------------------------
 -                                                                             -
 -                                GRID STATISTICS                              -
 -                                                                             -
 -------------------------------------------------------------------------------
 LP    KERNEL             BACKEND                              COUNT     PERCENT
 1     collocate ortho    CPU                                  12900      13.35%
 1     integrate ortho    CPU                                  12900      13.35%
 2     collocate general  CPU                                  12096      12.52%
 2     integrate general  CPU                                  12096      12.52%
 0     collocate ortho    CPU                                   8886       9.20%
 0     integrate ortho    CPU                                   8886       9.20%
 2     collocate ortho    CPU                                   8844       9.16%
 2     integrate ortho    CPU                                   8844       9.16%
 3     collocate ortho    CPU                                   3060       3.17%
 3     integrate ortho    CPU                                   3060       3.17%
 0     collocate general  CPU                                   2016       2.09%
 0     integrate general  CPU                                   2016       2.09%
 4     collocate ortho    CPU                                    498       0.52%
 4     integrate ortho    CPU                                    498       0.52%
 -------------------------------------------------------------------------------

 MEMORY| Estimated peak process memory [MiB]                                1447

 -------------------------------------------------------------------------------
 ----                             MULTIGRID INFO                            ----
 -------------------------------------------------------------------------------
 count for grid        1:        1048366          cutoff [a.u.]          300.00
 count for grid        2:         178507          cutoff [a.u.]          100.00
 count for grid        3:         174488          cutoff [a.u.]           33.33
 count for grid        4:          97761          cutoff [a.u.]           11.11
 total gridlevel count  :        1499122

 -------------------------------------------------------------------------------
 -                                                                             -
 -                         MESSAGE PASSING PERFORMANCE                         -
 -                                                                             -
 -------------------------------------------------------------------------------

 ROUTINE             CALLS      AVE VOLUME [Bytes]
 MP_Group          6929128
 MP_Bcast          3719872                     88.
 MP_Allreduce      7858724                    123.
 MP_Sync           5070112
 MP_Alltoall       3380234                   2323.
 MP_SendRecv          1716                  38400.
 MP_ISendRecv         3718                  19834.
 MP_Wait           4399518
 MP_comm_split     3718063
 MP_ISend         25351896                 136346.
 MP_IRecv         20957844                 145882.
 -------------------------------------------------------------------------------


 -------------------------------------------------------------------------------
 -                                                                             -
 -                           R E F E R E N C E S                               -
 -                                                                             -
 -------------------------------------------------------------------------------
 
 CP2K version 2025.1 (Development Version), the CP2K developers group (2025).
 CP2K is freely available from https://www.cp2k.org/ .
 
 M. Graml, K. Zollner, D. Hernangmez-Prez, P. E. Faria Junior, J. Wilhelm.
 J. Chem. Theory Comput. 20, 2202-2208 (2024).
 Low-scaling GW algorithm applied to twisted transition-metal dichalcogenide 
 heterobilayers.
 https://doi.org/10.1021/acs.jctc.3c01230

 T. D. Kuehne, M. Iannuzzi, M. Del Ben, V. V. Rybkin, P. Seewald, F. Stein, T. 
 Laino, R. Z. Khaliullin, O. Schuett, F. Schiffmann, D. Golze, J. Wilhelm, S. 
 Chulkov, M. H. Bani-Hashemian, V. Weber, U. Borstnik, M. Taillefumier, A. S. 
 Jakobovits, A. Lazzaro, H. Pabst, T. Mueller, R. Schade, M. Guidon, S. 
 Andermatt, N. Holmberg, G. K. Schenter, A. Hehn, A. Bussy, F. Belleflamme, G. 
 Tabacchi, A. Gloess, M. Lass, I. Bethune, C. J. Mundy, C. Plessl, M. Watkins, 
 J. VandeVondele, M. Krack, J. Hutter.
 J. Chem. Phys. 152, 194103 (2020).
 CP2K: An electronic structure and molecular dynamics software package - 
 Quickstep: Efficient and accurate electronic structure calculations.
 https://doi.org/10.1063/5.0007045

 O. Schuett, P. Messmer, J. Hutter, J. VandeVondele.
 Electronic Structure Calculations on Graphics Processing Units, 173-190 (2016).
 GPU-Accelerated Sparse Matrix-Matrix Multiplication for Linear Scaling Density 
 Functional Theory.
 https://doi.org/10.1002/9781118670712.ch8

 A. Heinecke, G. Henry, M. Hutchinson, H. Pabst.
 Proceedings of Intl. Supercomputing Conference, 981-991 (2016).
 LIBXSMM: Accelerating Small Matrix Multiplications by Runtime Code Generation.
 https://doi.org/10.1109/SC.2016.83

 J. Hutter, M. Iannuzzi, F. Schiffmann, J. VandeVondele.
 WIREs Comput Mol Sci. 4, 15-25 (2014).
 CP2K: atomistic simulations of condensed matter systems.
 https://doi.org/10.1002/wcms.1159

 U. Borstnik, J. VandeVondele, V. Weber, J. Hutter.
 Parallel Comput. 40, 47-58 (2014).
 Sparse matrix multiplication: The distributed block-compressed sparse row 
 library.
 https://doi.org/10.1016/j.parco.2014.03.012

 M. Guidon, J. Hutter, J. VandeVondele.
 J. Chem. Theory Comput. 5, 3010-3021 (2009).
 Robust Periodic Hartree-Fock Exchange for Large-Scale Simulations Using 
 Gaussian Basis Sets.
 https://doi.org/10.1021/ct900494g

 M. Guidon, F. Schiffmann, J. Hutter, J. VandeVondele.
 J. Chem. Phys. 128, 214104 (2008).
 Ab initio molecular dynamics using hybrid density functionals.
 https://doi.org/10.1063/1.2931945

 L. Genovese, T. Deutsch, S. Goedecker.
 J. Chem. Phys. 127, 054704 (2007).
 Efficient and accurate three-dimensional Poisson solver for surface problems.
 https://doi.org/10.1063/1.2754685

 L. Genovese, T. Deutsch, A. Neelov, S. Goedecker, G. Beylkin.
 J. Chem. Phys. 125, 074105 (2006).
 Efficient solution of Poisson's equation with free boundary conditions.
 https://doi.org/10.1063/1.2335442

 M. Frigo, S. G. Johnson.
 Proc. IEEE 93, 216-231 (2005).
 The design and implementation of FFTW3.
 https://doi.org/10.1109/JPROC.2004.840301

 M. Krack, M. Parrinello.
 Phys. Chem. Chem. Phys. 2, 2105-2112 (2000).
 All-electron ab-initio molecular dynamics.
 https://doi.org/10.1039/b001167n

 G. Lippert, J. Hutter, M. Parrinello.
 Theor. Chem. Acc. 103, 124-140 (1999).
 The Gaussian and augmented-plane-wave density functional method for ab initio 
 molecular dynamics simulations.
 https://doi.org/10.1007/s002140050523

 J. P. Perdew, K. Burke, M. Ernzerhof.
 Phys. Rev. Lett. 77, 3865-3868 (1996).
 Generalized gradient approximation made simple.
 https://doi.org/10.1103/PhysRevLett.77.3865


 -------------------------------------------------------------------------------
 -                                                                             -
 -                                T I M I N G                                  -
 -                                                                             -
 -------------------------------------------------------------------------------
 SUBROUTINE                       CALLS  ASD         SELF TIME        TOTAL TIME
                                MAXIMUM       AVERAGE  MAXIMUM  AVERAGE  MAXIMUM
 CP2K                                 1  1.0     0.03     0.05 31210.63 31211.03
 run_propagation_bse                  1  2.0     1.57    12.36 31199.60 31210.39
 etrs_scf_loop                    20001  3.0     0.38     0.45 30900.25 30901.51
 update_effective_ham             56333  4.0     1.75     1.90 30153.92 30155.69
 get_sigma                       169002  5.0     3.77     4.12 29705.10 29707.01
 dbt_total                       507007  6.0     5.11     6.81 29349.02 29350.35
 dbt_contract                    507006  7.0    33.58    38.22 29100.34 29315.74
 dbt_tas_multiply               1014012  9.5     2.62     3.05 25781.51 25930.26
 dbt_tas_total                  1014012 10.5   150.05   172.39 25560.22 25561.31
 dbt_tas_dbm                    1014012 11.5     3.01     3.45 11834.61 11835.68
 dbm_multiply                   1014012 13.5  9469.72 11507.41  9469.72 11507.41
 mp_sync                        5070112 10.6  4540.89  6858.94  4540.89  6858.94
 dbm_redistribute               2028024 11.4  4591.64  5942.60  4591.64  5942.60
 dbt_tas_mm_3N                   338004 12.5     0.67     0.82  5083.11  5796.24
 convert_to_new_pgrid           3042036 11.5   801.31  1237.51  3737.34  4556.50
 dbt_tas_mm_2                    338004 12.5     1.39     1.65  3602.37  3602.98
 dbt_copy                        676009  8.5     4.11     4.58  2365.92  2958.44
 dbt_reshape                     507006  9.7  1328.20  1733.26  2121.72  2636.53
 dbt_remap                       676008  8.0    81.98    86.36  2221.15  2423.98
 dbt_tas_estimate_result_nze     507006 10.0   472.80   647.77  2250.85  2251.63
 dbt_tas_mm_1N                   338004 12.5     0.66     0.78  1535.19  2196.33
 dbt_tas_reshape                1352016 11.6    25.55    28.00  1426.62  1807.53
 reshape_mm_compatible          1014012 11.5    26.48    30.25  1497.07  1562.55
 change_split                   1521018 12.0    12.14    14.05  1419.40  1484.85
 mp_sum_l                       5408539 11.7   898.78  1427.73   898.78  1427.73
 dbt_tas_create_split           3718054 12.4    12.35    15.26  1224.97  1403.93
 dbt_tas_create_split_rows_or_c 3718054 13.4    20.68    22.06  1212.62  1391.67
 mp_waitall_2                   5746068 13.9   809.21  1091.91   809.21  1091.91
 dbt_tas_distribution_new       4394068 11.8   502.56   523.60  1039.07  1086.43
 reshape_mm_small               1014012 11.5   114.73   119.76   930.84   990.95
 dbt_tas_copy                    676009 12.0   456.83   646.56   710.72   971.19
 dbt_tas_replicate              1014012 11.5   268.65   403.16   804.00   917.06
 mp_cart_create                 7154545 12.7   688.39   830.47   696.32   838.22
 dbt_tas_communicate_buffer     2366028 13.6    37.04    56.58   615.53   832.61
 dbm_reserve_blocks             4901066 13.6   620.83   820.45   620.83   820.45
 dbt_tas_reshape_buffer_obtain  1352016 12.6   484.78   623.92   627.09   795.98
 dbt_tas_reserve_blocks_index   3887054 12.9    16.63    23.77   595.10   790.02
 dbt_communicate_buffer          507006 10.7    11.11    15.00   573.50   789.50
 mp_comm_dup                    3211052 14.7   581.88   761.95   585.40   765.54
 propagate_density                76335  4.0     0.12     0.14   703.45   706.35
 bch_propagate                    76335  5.0     3.30     4.47   703.33   706.23
 parallel_gemm_cfm              1433282  6.0     1.27     1.39   654.47   683.95
 parallel_gemm_cfm_gemm         1433282  7.0     1.29     1.48   653.19   682.74
 cp_cfm_gemm                    1433282  8.0   651.91   681.49   651.91   681.49
 -------------------------------------------------------------------------------

 The number of warnings for this run is : 3
 
 -------------------------------------------------------------------------------
  **** **** ******  **  PROGRAM ENDED AT                 2025-02-11 02:57:16.405
 ***** ** ***  *** **   PROGRAM RAN ON                              i04r04c01s02
 **    ****   ******    PROGRAM RAN BY                                   di75qec
 ***** **    ** ** **   PROGRAM PROCESS ID                               1312709
  **** **  *******  **  PROGRAM STOPPED IN /hppfs/scratch/09/di75qec/Hexatriene_
                                           rtbse_z_7.4280787
