 DBCSR| CPU Multiplication driver                                           XSMM (U)
 DBCSR| Multrec recursion limit                                              512 (U)
 DBCSR| Multiplication stack size                                           1000 (D)
 DBCSR| Maximum elements for images                                    UNLIMITED (U)
 DBCSR| Multiplicative factor virtual images                                   1 (U)
 DBCSR| Use multiplication densification                                       T (D)
 DBCSR| Multiplication size stacks                                             3 (U)
 DBCSR| Use memory pool for CPU allocation                                     F (U)
 DBCSR| Number of 3D layers                                               SINGLE (U)
 DBCSR| Use MPI memory allocation                                              F (U)
 DBCSR| Use RMA algorithm                                                      F (U)
 DBCSR| Use Communication thread                                               T (U)
 DBCSR| Communication thread load                                             79 (D)
 DBCSR| MPI: My process id                                                     0
 DBCSR| MPI: Number of processes                                              16
 DBCSR| OMP: Current number of threads                                         3
 DBCSR| OMP: Max number of threads                                             3
 DBCSR| Split modifier for TAS multiplication algorithm                  1.0E+00 (U)


  **** **** ******  **  PROGRAM STARTED AT               2024-12-02 15:53:51.116
 ***** ** ***  *** **   PROGRAM STARTED ON                          i01r03c01s10
 **    ****   ******    PROGRAM STARTED BY                               di75qec
 ***** **    ** ** **   PROGRAM PROCESS ID                               4145345
  **** **  *******  **  PROGRAM STARTED IN /hppfs/scratch/09/di75qec/Butadiene_s
                                           cf.4142572

 CP2K| version string:                 CP2K version 2024.3 (Development Version)
 CP2K| source code revision number:                                  git:29c2adf
 CP2K| cp2kflags: omp libint fftw3 libxc parallel scalapack xsmm max_contr=4    
 CP2K| is freely available from                            https://www.cp2k.org/
 CP2K| Program compiled at                       Thu 21 Nov 2024 04:40:02 PM CET
 CP2K| Program compiled on                                               login03
 CP2K| Program compiled for                                        Supermuc-foss
 CP2K| Data directory path               /dss/dsshome1/09/di75qec/CP2K-foss/data
 CP2K| Input file name                                                   scf.inp

 GLOBAL| Force Environment number                                              1
 GLOBAL| Basis set file name                                         aug-cc-pvdz
 GLOBAL| Potential file name                                      ALL_POTENTIALS
 GLOBAL| MM Potential file name                                     MM_POTENTIAL
 GLOBAL| Coordinate file name                                          coord.xyz
 GLOBAL| Method name                                                        CP2K
 GLOBAL| Project name                                                  Butadiene
 GLOBAL| Run type                                                 RT_PROPAGATION
 GLOBAL| FFT library                                                       FFTW3
 GLOBAL| Diagonalization library                                       ScaLAPACK
 GLOBAL| DGEMM library                                                      BLAS
 GLOBAL| Orthonormality check for eigenvectors                          DISABLED
 GLOBAL| Matrix multiplication library                                 ScaLAPACK
 GLOBAL| All-to-all communication in single precision                          F
 GLOBAL| FFTs using library dependent lengths                                  F
 GLOBAL| Grid backend                                                       AUTO
 GLOBAL| Global print level                                               MEDIUM
 GLOBAL| MPI I/O enabled                                                       T
 GLOBAL| Total number of message passing processes                            16
 GLOBAL| Number of threads for this process                                    3
 GLOBAL| This output is from process                                           0
 GLOBAL| Stack size for threads created by OpenMP (OMP_STACKSIZE)        default
 GLOBAL| CPU model name             Intel(R) Xeon(R) Platinum 8174 CPU @ 3.10GHz
 GLOBAL| CPUID                                                              1003
 GLOBAL| Compiled for CPUID                                                    0

 *** HINT in environment.F:921 :: The compiler target flags (generic) used ***
 *** to build this binary cannot exploit all extensions of this CPU model  ***
 *** (x86_avx512). Consider compiler target flags as part of FCFLAGS and   ***
 *** CFLAGS (ARCH file).                                                   ***


 MEMORY| system memory details [Kb]
 MEMORY|                        rank 0           min           max       average
 MEMORY| MemTotal             98436708      98436708      98436708      98436708
 MEMORY| MemFree              84334068      84334068      84334068      84334068
 MEMORY| Buffers                     0             0             0             0
 MEMORY| Cached                2359840       2359840       2359840       2359840
 MEMORY| Slab                  1104552       1104552       1104552       1104552
 MEMORY| SReclaimable           247868        247868        247868        247868
 MEMORY| MemLikelyFree        86941776      86941776      86941776      86941776


 *** Fundamental physical constants (SI units) ***

 *** Literature: B. J. Mohr and B. N. Taylor,
 ***             CODATA recommended values of the fundamental physical
 ***             constants: 2006, Web Version 5.1
 ***             http://physics.nist.gov/constants

 Speed of light in vacuum [m/s]                             2.99792458000000E+08
 Magnetic constant or permeability of vacuum [N/A**2]       1.25663706143592E-06
 Electric constant or permittivity of vacuum [F/m]          8.85418781762039E-12
 Planck constant (h) [J*s]                                  6.62606896000000E-34
 Planck constant (h-bar) [J*s]                              1.05457162825177E-34
 Elementary charge [C]                                      1.60217648700000E-19
 Electron mass [kg]                                         9.10938215000000E-31
 Electron g factor [ ]                                     -2.00231930436220E+00
 Proton mass [kg]                                           1.67262163700000E-27
 Fine-structure constant                                    7.29735253760000E-03
 Rydberg constant [1/m]                                     1.09737315685270E+07
 Avogadro constant [1/mol]                                  6.02214179000000E+23
 Boltzmann constant [J/K]                                   1.38065040000000E-23
 Atomic mass unit [kg]                                      1.66053878200000E-27
 Bohr radius [m]                                            5.29177208590000E-11

 *** Conversion factors ***

 [u] -> [a.u.]                                              1.82288848426455E+03
 [Angstrom] -> [Bohr] = [a.u.]                              1.88972613288564E+00
 [a.u.] = [Bohr] -> [Angstrom]                              5.29177208590000E-01
 [a.u.] -> [s]                                              2.41888432650478E-17
 [a.u.] -> [fs]                                             2.41888432650478E-02
 [a.u.] -> [J]                                              4.35974393937059E-18
 [a.u.] -> [N]                                              8.23872205491840E-08
 [a.u.] -> [K]                                              3.15774647902944E+05
 [a.u.] -> [kJ/mol]                                         2.62549961709828E+03
 [a.u.] -> [kcal/mol]                                       6.27509468713739E+02
 [a.u.] -> [Pa]                                             2.94210107994716E+13
 [a.u.] -> [bar]                                            2.94210107994716E+08
 [a.u.] -> [atm]                                            2.90362800883016E+08
 [a.u.] -> [eV]                                             2.72113838565563E+01
 [a.u.] -> [Hz]                                             6.57968392072181E+15
 [a.u.] -> [1/cm] (wave numbers)                            2.19474631370540E+05
 [a.u./Bohr**2] -> [1/cm]                                   5.14048714338585E+03
 

 CELL_TOP| Volume [angstrom^3]:                                      8000.000000
 CELL_TOP| Vector a [angstrom    20.000     0.000     0.000   |a| =    20.000000
 CELL_TOP| Vector b [angstrom     0.000    20.000     0.000   |b| =    20.000000
 CELL_TOP| Vector c [angstrom     0.000     0.000    20.000   |c| =    20.000000
 CELL_TOP| Angle (b,c), alpha [degree]:                                90.000000
 CELL_TOP| Angle (a,c), beta  [degree]:                                90.000000
 CELL_TOP| Angle (a,b), gamma [degree]:                                90.000000
 CELL_TOP| Numerically orthorhombic:                                         YES
 CELL_TOP| Periodicity                                                      NONE

 GENERATE|  Preliminary Number of Bonds generated:                             0
 GENERATE|  Achieved consistency in connectivity generation.

 CELL| Volume [angstrom^3]:                                          8000.000000
 CELL| Vector a [angstrom]:      20.000     0.000     0.000   |a| =    20.000000
 CELL| Vector b [angstrom]:       0.000    20.000     0.000   |b| =    20.000000
 CELL| Vector c [angstrom]:       0.000     0.000    20.000   |c| =    20.000000
 CELL| Angle (b,c), alpha [degree]:                                    90.000000
 CELL| Angle (a,c), beta  [degree]:                                    90.000000
 CELL| Angle (a,b), gamma [degree]:                                    90.000000
 CELL| Numerically orthorhombic:                                             YES
 CELL| Periodicity                                                          NONE

 CELL_REF| Volume [angstrom^3]:                                      8000.000000
 CELL_REF| Vector a [angstrom    20.000     0.000     0.000   |a| =    20.000000
 CELL_REF| Vector b [angstrom     0.000    20.000     0.000   |b| =    20.000000
 CELL_REF| Vector c [angstrom     0.000     0.000    20.000   |c| =    20.000000
 CELL_REF| Angle (b,c), alpha [degree]:                                90.000000
 CELL_REF| Angle (a,c), beta  [degree]:                                90.000000
 CELL_REF| Angle (a,b), gamma [degree]:                                90.000000
 CELL_REF| Numerically orthorhombic:                                         YES
 CELL_REF| Periodicity                                                      NONE

 *******************************************************************************
 *******************************************************************************
 **                                                                           **
 **     #####                         ##              ##                      **
 **    ##   ##            ##          ##              ##                      **
 **   ##     ##                       ##            ######                    **
 **   ##     ##  ##   ##  ##   #####  ##  ##   ####   ##    #####    #####    **
 **   ##     ##  ##   ##  ##  ##      ## ##   ##      ##   ##   ##  ##   ##   **
 **   ##  ## ##  ##   ##  ##  ##      ####     ###    ##   ######   ######    **
 **    ##  ###   ##   ##  ##  ##      ## ##      ##   ##   ##       ##        **
 **     #######   #####   ##   #####  ##  ##  ####    ##    #####   ##        **
 **           ##                                                    ##        **
 **                                                                           **
 **                                                ... make the atoms dance   **
 **                                                                           **
 **            Copyright (C) by CP2K developers group (2000-2024)             **
 **                      J. Chem. Phys. 152, 194103 (2020)                    **
 **                                                                           **
 *******************************************************************************

 DFT| Spin restricted Kohn-Sham (RKS) calculation                            RKS
 DFT| Multiplicity                                                             1
 DFT| Number of spin states                                                    1
 DFT| Charge                                                                   0
 DFT| Self-interaction correction (SIC)                                       NO
 DFT| Cutoffs: density                                              1.000000E-10
 DFT|          gradient                                             1.000000E-10
 DFT|          tau                                                  1.000000E-10
 DFT|          cutoff_smoothing_range                               0.000000E+00
 DFT| XC density smoothing                                                  NONE
 DFT| XC derivatives                                                          PW

 FUNCTIONAL| PBE:
 FUNCTIONAL| J.P.Perdew, K.Burke, M.Ernzerhof, Phys. Rev. Letter, vol. 77, n 18,
 FUNCTIONAL|  pp. 3865-3868, (1996)sx=0.750sc=1.000{spin unpolarized}           


 QS| Method:                                                                GAPW
 QS| Density plane wave grid type                        NON-SPHERICAL FULLSPACE
 QS| Number of grid levels:                                                    4
 QS| Density cutoff [a.u.]:                                                300.0
 QS| Multi grid cutoff [a.u.]: 1) grid level                               300.0
 QS|                           2) grid level                               100.0
 QS|                           3) grid level                                33.3
 QS|                           4) grid level                                11.1
 QS| Grid level progression factor:                                          3.0
 QS| Relative density cutoff [a.u.]:                                        30.0
 QS| Interaction thresholds: eps_pgf_orb:                                1.0E-05
 QS|                         eps_filter_matrix:                          0.0E+00
 QS|                         eps_core_charge:                            1.0E-12
 QS|                         eps_rho_gspace:                             1.0E-10
 QS|                         eps_rho_rspace:                             1.0E-10
 QS|                         eps_gvg_rspace:                             1.0E-05
 QS|                         eps_ppl:                                    1.0E-02
 QS|                         eps_ppnl:                                   1.0E-07
 QS| GAPW|      One center basis from orbital basis primitives
 QS| GAPW|                   eps_fit:                                    1.0E-04
 QS| GAPW|                   eps_iso:                                    1.0E-12
 QS| GAPW|                   eps_svd:                                    1.0E-08
 QS| GAPW|                   eps_cpc:                                    1.0E-10
 QS| GAPW|   atom-r-grid: quadrature:                                     GC_LOG
 QS| GAPW|      atom-s-grid:  max l :                                          4
 QS| GAPW|      max_l_rho0 :                                                   2


 ATOMIC KIND INFORMATION

  1. Atomic kind: H                                     Number of atoms:       6

     Orbital Basis Set                                               aug-cc-pvdz

       Number of orbital shell sets:                                           4
       Number of orbital shells:                                               5
       Number of primitive Cartesian functions:                                7
       Number of Cartesian basis functions:                                    9
       Number of spherical basis functions:                                    9
       Norm type:                                                              2

       Normalised Cartesian orbitals:

                        Set   Shell   Orbital            Exponent    Coefficient

                          1       1    1s               13.010000       0.096107
                                                         1.962000       0.163020
                                                         0.444600       0.185545
                                                         0.122000       0.073744

                          1       2    2s               13.010000       0.000000
                                                         1.962000       0.000000
                                                         0.444600       0.000000
                                                         0.122000       0.147123

                          2       1    1s                0.029740       0.051041

                          3       1    1px               0.727000       0.956881
                          3       1    1py               0.727000       0.956881
                          3       1    1pz               0.727000       0.956881

                          4       1    1px               0.141000       0.123158
                          4       1    1py               0.141000       0.123158
                          4       1    1pz               0.141000       0.123158

     RI Auxiliary Basis Set                                    aug-cc-pvdz-rifit

       Number of orbital shell sets:                                           9
       Number of orbital shells:                                               9
       Number of primitive Cartesian functions:                                9
       Number of Cartesian basis functions:                                   25
       Number of spherical basis functions:                                   23
       Norm type:                                                              2

       Normalised Cartesian orbitals:

                        Set   Shell   Orbital            Exponent    Coefficient

                          1       1    1s                5.115890       2.424381

                          2       1    1s                1.142965       0.787834

                          3       1    1s                0.291662       0.282859

                          4       1    1s                0.112720       0.138647

                          5       1    1px               1.914964       3.211004
                          5       1    1py               1.914964       3.211004
                          5       1    1pz               1.914964       3.211004

                          6       1    1px               0.986401       1.401222
                          6       1    1py               0.986401       1.401222
                          6       1    1pz               0.986401       1.401222

                          7       1    1px               0.285860       0.297942
                          7       1    1py               0.285860       0.297942
                          7       1    1pz               0.285860       0.297942

                          8       1    1dx2              1.172083       2.173136
                          8       1    1dxy              1.172083       3.763982
                          8       1    1dxz              1.172083       3.763982
                          8       1    1dy2              1.172083       2.173136
                          8       1    1dyz              1.172083       3.763982
                          8       1    1dz2              1.172083       2.173136

                          9       1    1dx2              0.303821       0.204640
                          9       1    1dxy              0.303821       0.354446
                          9       1    1dxz              0.303821       0.354446
                          9       1    1dy2              0.303821       0.204640
                          9       1    1dyz              0.303821       0.354446
                          9       1    1dz2              0.303821       0.204640

       Atomic covalent radius [Angstrom]:                                  0.320

       Atomic van der Waals radius [Angstrom]:                             1.090

     The atoms of this atomic kind are PAW atoms (GAPW):
       Hard Gaussian function radius:                                      1.200
       Rho0 radius:                                                        1.200
       Maximum GTO radius used for PAW projector construction:            24.566

     GAPW Soft Basis Set                                        aug-cc-pvdz_soft

       Number of orbital shell sets:                                           4
       Number of orbital shells:                                               5
       Number of primitive Cartesian functions:                                6
       Number of Cartesian basis functions:                                    9
       Number of spherical basis functions:                                    9
       Norm type:                                                              2

       Normalised Cartesian orbitals:

                        Set   Shell   Orbital            Exponent    Coefficient

                          1       1    1s                1.962000       0.163020
                                                         0.444600       0.185545
                                                         0.122000       0.073744

                          1       2    2s                1.962000       0.000000
                                                         0.444600       0.000000
                                                         0.122000       0.147123

                          2       1    1s                0.029740       0.051041

                          3       1    1px               0.727000       0.956881
                          3       1    1py               0.727000       0.956881
                          3       1    1pz               0.727000       0.956881

                          4       1    1px               0.141000       0.123158
                          4       1    1py               0.141000       0.123158
                          4       1    1pz               0.141000       0.123158

     AE Potential information for                                            ALL

       Description:                                       All-electron potential
                                          Krack, Parrinello, PCCP 2, 2105 (2000)

       Gaussian exponent of the core charge distribution:              12.500000
       Electronic configuration (s p d ...):                           1   0   0

  2. Atomic kind: C                                     Number of atoms:       4

     Orbital Basis Set                                               aug-cc-pvdz

       Number of orbital shell sets:                                           6
       Number of orbital shells:                                               9
       Number of primitive Cartesian functions:                               17
       Number of Cartesian basis functions:                                   25
       Number of spherical basis functions:                                   23
       Norm type:                                                              2

       Normalised Cartesian orbitals:

                        Set   Shell   Orbital            Exponent    Coefficient

                          1       1    1s             6665.000000       0.363803
                                                      1000.000000       0.675392
                                                       228.000000       1.132301
                                                        64.710000       1.654004
                                                        21.060000       1.924978
                                                         7.495000       1.448149
                                                         2.797000       0.439427
                                                         0.521500       0.006650
                                                         0.159600      -0.000574

                          1       2    2s             6665.000000      -0.076756
                                                      1000.000000      -0.146257
                                                       228.000000      -0.239407
                                                        64.710000      -0.379069
                                                        21.060000      -0.448104
                                                         7.495000      -0.484201
                                                         2.797000      -0.196168
                                                         0.521500       0.238162
                                                         0.159600       0.104468

                          1       3    3s             6665.000000       0.000000
                                                      1000.000000       0.000000
                                                       228.000000       0.000000
                                                        64.710000       0.000000
                                                        21.060000       0.000000
                                                         7.495000       0.000000
                                                         2.797000       0.000000
                                                         0.521500       0.000000
                                                         0.159600       0.179964

                          2       1    1s                0.046900       0.071827

                          3       1    1px               9.439000       0.898722
                                                         2.002000       0.711071
                                                         0.545600       0.339917
                                                         0.151700       0.063270
                          3       1    1py               9.439000       0.898722
                                                         2.002000       0.711071
                                                         0.545600       0.339917
                                                         0.151700       0.063270
                          3       1    1pz               9.439000       0.898722
                                                         2.002000       0.711071
                                                         0.545600       0.339917
                                                         0.151700       0.063270

                          3       2    2px               9.439000       0.000000
                                                         2.002000       0.000000
                                                         0.545600       0.000000
                                                         0.151700       0.134950
                          3       2    2py               9.439000       0.000000
                                                         2.002000       0.000000
                                                         0.545600       0.000000
                                                         0.151700       0.134950
                          3       2    2pz               9.439000       0.000000
                                                         2.002000       0.000000
                                                         0.545600       0.000000
                                                         0.151700       0.134950

                          4       1    1px               0.040410       0.025826
                          4       1    1py               0.040410       0.025826
                          4       1    1pz               0.040410       0.025826

                          5       1    1dx2              0.550000       0.578155
                          5       1    1dxy              0.550000       1.001394
                          5       1    1dxz              0.550000       1.001394
                          5       1    1dy2              0.550000       0.578155
                          5       1    1dyz              0.550000       1.001394
                          5       1    1dz2              0.550000       0.578155

                          6       1    1dx2              0.151000       0.060203
                          6       1    1dxy              0.151000       0.104275
                          6       1    1dxz              0.151000       0.104275
                          6       1    1dy2              0.151000       0.060203
                          6       1    1dyz              0.151000       0.104275
                          6       1    1dz2              0.151000       0.060203

     RI Auxiliary Basis Set                                    aug-cc-pvdz-rifit

       Number of orbital shell sets:                                          22
       Number of orbital shells:                                              22
       Number of primitive Cartesian functions:                               22
       Number of Cartesian basis functions:                                   86
       Number of spherical basis functions:                                   72
       Norm type:                                                              2

       Normalised Cartesian orbitals:

                        Set   Shell   Orbital            Exponent    Coefficient

                          1       1    1s               62.745300      15.888979

                          2       1    1s               13.804500       5.104176

                          3       1    1s                4.772770       2.301378

                          4       1    1s                1.513330       0.972434

                          5       1    1s                0.782697       0.593069

                          6       1    1s                0.409072       0.364552

                          7       1    1s                0.206796       0.218558

                          8       1    1s                0.073830       0.100945

                          9       1    1px              20.885100      63.640823
                          9       1    1py              20.885100      63.640823
                          9       1    1pz              20.885100      63.640823

                         10       1    1px               6.005230      13.399918
                         10       1    1py               6.005230      13.399918
                         10       1    1pz               6.005230      13.399918

                         11       1    1px               1.720600       2.808924
                         11       1    1py               1.720600       2.808924
                         11       1    1pz               1.720600       2.808924

                         12       1    1px               0.754465       1.002280
                         12       1    1py               0.754465       1.002280
                         12       1    1pz               0.754465       1.002280

                         13       1    1px               0.321667       0.345301
                         13       1    1py               0.321667       0.345301
                         13       1    1pz               0.321667       0.345301

                         14       1    1px               0.125953       0.106954
                         14       1    1py               0.125953       0.106954
                         14       1    1pz               0.125953       0.106954

                         15       1    1dx2             10.171500      95.352748
                         15       1    1dxy             10.171500     165.155804
                         15       1    1dxz             10.171500     165.155804
                         15       1    1dy2             10.171500      95.352748
                         15       1    1dyz             10.171500     165.155804
                         15       1    1dz2             10.171500      95.352748

                         16       1    1dx2              2.678440       9.230024
                         16       1    1dxy              2.678440      15.986870
                         16       1    1dxz              2.678440      15.986870
                         16       1    1dy2              2.678440       9.230024
                         16       1    1dyz              2.678440      15.986870
                         16       1    1dz2              2.678440       9.230024

                         17       1    1dx2              0.922515       1.429266
                         17       1    1dxy              0.922515       2.475561
                         17       1    1dxz              0.922515       2.475561
                         17       1    1dy2              0.922515       1.429266
                         17       1    1dyz              0.922515       2.475561
                         17       1    1dz2              0.922515       1.429266

                         18       1    1dx2              0.340842       0.250252
                         18       1    1dxy              0.340842       0.433449
                         18       1    1dxz              0.340842       0.433449
                         18       1    1dy2              0.340842       0.250252
                         18       1    1dyz              0.340842       0.433449
                         18       1    1dz2              0.340842       0.250252

                         19       1    1dx2              0.110211       0.034698
                         19       1    1dxy              0.110211       0.060099
                         19       1    1dxz              0.110211       0.060099
                         19       1    1dy2              0.110211       0.034698
                         19       1    1dyz              0.110211       0.060099
                         19       1    1dz2              0.110211       0.034698

                         20       1    1fx3              2.742930      14.254027
                         20       1    1fx2y             2.742930      31.872974
                         20       1    1fx2z             2.742930      31.872974
                         20       1    1fxy2             2.742930      31.872974
                         20       1    1fxyz             2.742930      55.205610
                         20       1    1fxz2             2.742930      31.872974
                         20       1    1fy3              2.742930      14.254027
                         20       1    1fy2z             2.742930      31.872974
                         20       1    1fyz2             2.742930      31.872974
                         20       1    1fz3              2.742930      14.254027

                         21       1    1fx3              0.895756       1.149162
                         21       1    1fx2y             0.895756       2.569605
                         21       1    1fx2z             0.895756       2.569605
                         21       1    1fxy2             0.895756       2.569605
                         21       1    1fxyz             0.895756       4.450686
                         21       1    1fxz2             0.895756       2.569605
                         21       1    1fy3              0.895756       1.149162
                         21       1    1fy2z             0.895756       2.569605
                         21       1    1fyz2             0.895756       2.569605
                         21       1    1fz3              0.895756       1.149162

                         22       1    1fx3              0.317146       0.111119
                         22       1    1fx2y             0.317146       0.248470
                         22       1    1fx2z             0.317146       0.248470
                         22       1    1fxy2             0.317146       0.248470
                         22       1    1fxyz             0.317146       0.430362
                         22       1    1fxz2             0.317146       0.248470
                         22       1    1fy3              0.317146       0.111119
                         22       1    1fy2z             0.317146       0.248470
                         22       1    1fyz2             0.317146       0.248470
                         22       1    1fz3              0.317146       0.111119

       Atomic covalent radius [Angstrom]:                                  0.770

       Atomic van der Waals radius [Angstrom]:                             1.700

     The atoms of this atomic kind are PAW atoms (GAPW):
       Hard Gaussian function radius:                                      1.512
       Rho0 radius:                                                        1.512
       Maximum GTO radius used for PAW projector construction:            24.566

     GAPW Soft Basis Set                                        aug-cc-pvdz_soft

       Number of orbital shell sets:                                           6
       Number of orbital shells:                                               9
       Number of primitive Cartesian functions:                               10
       Number of Cartesian basis functions:                                   25
       Number of spherical basis functions:                                   23
       Norm type:                                                              2

       Normalised Cartesian orbitals:

                        Set   Shell   Orbital            Exponent    Coefficient

                          1       1    1s                2.797000       0.439427
                                                         0.521500       0.006650
                                                         0.159600      -0.000574

                          1       2    2s                2.797000      -0.196168
                                                         0.521500       0.238162
                                                         0.159600       0.104468

                          1       3    3s                2.797000       0.000000
                                                         0.521500       0.000000
                                                         0.159600       0.179964

                          2       1    1s                0.046900       0.071827

                          3       1    1px               2.002000       0.711071
                                                         0.545600       0.339917
                                                         0.151700       0.063270
                          3       1    1py               2.002000       0.711071
                                                         0.545600       0.339917
                                                         0.151700       0.063270
                          3       1    1pz               2.002000       0.711071
                                                         0.545600       0.339917
                                                         0.151700       0.063270

                          3       2    2px               2.002000       0.000000
                                                         0.545600       0.000000
                                                         0.151700       0.134950
                          3       2    2py               2.002000       0.000000
                                                         0.545600       0.000000
                                                         0.151700       0.134950
                          3       2    2pz               2.002000       0.000000
                                                         0.545600       0.000000
                                                         0.151700       0.134950

                          4       1    1px               0.040410       0.025826
                          4       1    1py               0.040410       0.025826
                          4       1    1pz               0.040410       0.025826

                          5       1    1dx2              0.550000       0.578155
                          5       1    1dxy              0.550000       1.001394
                          5       1    1dxz              0.550000       1.001394
                          5       1    1dy2              0.550000       0.578155
                          5       1    1dyz              0.550000       1.001394
                          5       1    1dz2              0.550000       0.578155

                          6       1    1dx2              0.151000       0.060203
                          6       1    1dxy              0.151000       0.104275
                          6       1    1dxz              0.151000       0.104275
                          6       1    1dy2              0.151000       0.060203
                          6       1    1dyz              0.151000       0.104275
                          6       1    1dz2              0.151000       0.060203

     AE Potential information for                                            ALL

       Description:                                       All-electron potential
                                          Krack, Parrinello, PCCP 2, 2105 (2000)

       Gaussian exponent of the core charge distribution:               4.109048
       Electronic configuration (s p d ...):                           4   2   0


 MOLECULE KIND INFORMATION


 All atoms are their own molecule, skipping detailed information


 TOTAL NUMBERS AND MAXIMUM NUMBERS

  Total number of            - Atomic kinds:                                   2
                             - Atoms:                                         10
                             - Shell sets:                                    48
                             - Shells:                                        66
                             - Primitive Cartesian functions:                110
                             - Cartesian basis functions:                    154
                             - Spherical basis functions:                    146

  Maximum angular momentum of the orbital basis functions:                     2


 MODULE QUICKSTEP: ATOMIC COORDINATES IN ANGSTROM

   Atom Kind Element         X             Y             Z       Z(eff)     Mass
      1    1 H     1     11.080977      7.441168     10.000000   1.0000   1.0079
      2    1 H     1      8.919023     12.558832     10.000000   1.0000   1.0079
      3    1 H     1     12.103773      8.982277     10.000000   1.0000   1.0079
      4    1 H     1      7.896227     11.017723     10.000000   1.0000   1.0079
      5    1 H     1      9.026435      8.780960     10.000000   1.0000   1.0079
      6    1 H     1     10.973565     11.219040     10.000000   1.0000   1.0079
      7    2 C     6     10.000000     10.728881     10.000000   6.0000  12.0107
      8    2 C     6     10.000000      9.271119     10.000000   6.0000  12.0107
      9    2 C     6     11.117962      8.525185     10.000000   6.0000  12.0107
     10    2 C     6      8.882038     11.474815     10.000000   6.0000  12.0107



 SCF PARAMETERS         Density guess:                                   RESTART
                        --------------------------------------------------------
                        max_scf:                                             200
                        max_scf_history:                                       0
                        max_diis:                                              4
                        --------------------------------------------------------
                        eps_scf:                                        1.00E-09
                        eps_scf_history:                                0.00E+00
                        eps_diis:                                       1.00E-01
                        eps_eigval:                                     1.00E-05
                        --------------------------------------------------------
                        level_shift [a.u.]:                             0.000000
                        added MOs                                       131    0
                        --------------------------------------------------------
                        Mixing method:                            BROYDEN_MIXING
                                                charge density mixing in g-space
                        --------------------------------------------------------
                        No outer SCF

 PW_GRID| Information for grid number                                          1
 PW_GRID| Grid distributed over                                    16 processors
 PW_GRID| Real space group dimensions                                    16    1
 PW_GRID| the grid is blocked:                                                NO
 PW_GRID| Cutoff [a.u.]                                                    300.0
 PW_GRID| spherical cutoff:                                                   NO
 PW_GRID|   Bounds   1           -150     149                Points:         300
 PW_GRID|   Bounds   2           -150     149                Points:         300
 PW_GRID|   Bounds   3           -150     149                Points:         300
 PW_GRID| Volume element (a.u.^3)  0.2000E-02     Volume (a.u.^3)     53986.6767
 PW_GRID| Grid span                                                    FULLSPACE
 PW_GRID|   Distribution                         Average         Max         Min
 PW_GRID|   G-Vectors                          1687500.0     1687500     1687500
 PW_GRID|   G-Rays                                5625.0        5625        5625
 PW_GRID|   Real Space Points                  1687500.0     1710000     1620000

 PW_GRID| Information for grid number                                          2
 PW_GRID| Number of the reference grid                                         1
 PW_GRID| Grid distributed over                                    16 processors
 PW_GRID| Real space group dimensions                                    16    1
 PW_GRID| the grid is blocked:                                                NO
 PW_GRID| Cutoff [a.u.]                                                    100.0
 PW_GRID| spherical cutoff:                                                   NO
 PW_GRID|   Bounds   1            -90      89                Points:         180
 PW_GRID|   Bounds   2            -90      89                Points:         180
 PW_GRID|   Bounds   3            -90      89                Points:         180
 PW_GRID| Volume element (a.u.^3)  0.9257E-02     Volume (a.u.^3)     53986.6767
 PW_GRID| Grid span                                                    FULLSPACE
 PW_GRID|   Distribution                         Average         Max         Min
 PW_GRID|   G-Vectors                           364500.0      364680      364320
 PW_GRID|   G-Rays                                2025.0        2026        2024
 PW_GRID|   Real Space Points                   364500.0      388800      356400

 PW_GRID| Information for grid number                                          3
 PW_GRID| Number of the reference grid                                         1
 PW_GRID| Grid distributed over                                    16 processors
 PW_GRID| Real space group dimensions                                    16    1
 PW_GRID| the grid is blocked:                                                NO
 PW_GRID| Cutoff [a.u.]                                                     33.3
 PW_GRID| spherical cutoff:                                                   NO
 PW_GRID|   Bounds   1            -50      49                Points:         100
 PW_GRID|   Bounds   2            -50      49                Points:         100
 PW_GRID|   Bounds   3            -50      49                Points:         100
 PW_GRID| Volume element (a.u.^3)  0.5399E-01     Volume (a.u.^3)     53986.6767
 PW_GRID| Grid span                                                    FULLSPACE
 PW_GRID|   Distribution                         Average         Max         Min
 PW_GRID|   G-Vectors                            62500.0       62600       62400
 PW_GRID|   G-Rays                                 625.0         626         624
 PW_GRID|   Real Space Points                    62500.0       70000       60000

 PW_GRID| Information for grid number                                          4
 PW_GRID| Number of the reference grid                                         1
 PW_GRID| Grid distributed over                                    16 processors
 PW_GRID| Real space group dimensions                                    16    1
 PW_GRID| the grid is blocked:                                                NO
 PW_GRID| Cutoff [a.u.]                                                     11.1
 PW_GRID| spherical cutoff:                                                   NO
 PW_GRID|   Bounds   1            -30      29                Points:          60
 PW_GRID|   Bounds   2            -30      29                Points:          60
 PW_GRID|   Bounds   3            -30      29                Points:          60
 PW_GRID| Volume element (a.u.^3)  0.2499         Volume (a.u.^3)     53986.6767
 PW_GRID| Grid span                                                    FULLSPACE
 PW_GRID|   Distribution                         Average         Max         Min
 PW_GRID|   G-Vectors                            13500.0       13560       13440
 PW_GRID|   G-Rays                                 225.0         226         224
 PW_GRID|   Real Space Points                    13500.0       14400       10800

 POISSON| Solver                                                         WAVELET
 POISSON| Wavelet| Scaling function                                           40
 POISSON| Periodicity                                                       NONE

 RS_GRID| Information for grid number                                          1
 RS_GRID|   Bounds   1           -150     149                Points:         300
 RS_GRID|   Bounds   2           -150     149                Points:         300
 RS_GRID|   Bounds   3           -150     149                Points:         300
 RS_GRID| Real space distribution over                                  4 groups
 RS_GRID| Real space distribution along direction                              2
 RS_GRID| Border size                                                         24
 RS_GRID| Real space distribution over                                  4 groups
 RS_GRID| Real space distribution along direction                              3
 RS_GRID| Border size                                                         24
 RS_GRID|   Distribution                         Average         Max         Min
 RS_GRID|   Planes                                 123.0         123         123
 RS_GRID|   Distribution                         Average         Max         Min
 RS_GRID|   Planes                                 123.0         123         123

 RS_GRID| Information for grid number                                          2
 RS_GRID|   Bounds   1            -90      89                Points:         180
 RS_GRID|   Bounds   2            -90      89                Points:         180
 RS_GRID|   Bounds   3            -90      89                Points:         180
 RS_GRID| Real space distribution over                                  4 groups
 RS_GRID| Real space distribution along direction                              2
 RS_GRID| Border size                                                         25
 RS_GRID| Real space distribution over                                  4 groups
 RS_GRID| Real space distribution along direction                              3
 RS_GRID| Border size                                                         25
 RS_GRID|   Distribution                         Average         Max         Min
 RS_GRID|   Planes                                  95.0          95          95
 RS_GRID|   Distribution                         Average         Max         Min
 RS_GRID|   Planes                                  95.0          95          95

 RS_GRID| Information for grid number                                          3
 RS_GRID|   Bounds   1            -50      49                Points:         100
 RS_GRID|   Bounds   2            -50      49                Points:         100
 RS_GRID|   Bounds   3            -50      49                Points:         100
 RS_GRID| Real space fully replicated
 RS_GRID| Group size                                                           1

 RS_GRID| Information for grid number                                          4
 RS_GRID|   Bounds   1            -30      29                Points:          60
 RS_GRID|   Bounds   2            -30      29                Points:          60
 RS_GRID|   Bounds   3            -30      29                Points:          60
 RS_GRID| Real space fully replicated
 RS_GRID| Group size                                                           1

  HFX_INFO| Replica ID:                                                        1
  HFX_INFO| FRACTION:                                               0.2500000000
  HFX_INFO| Interaction Potential:                                       COULOMB
  HFX_INFO| EPS_SCHWARZ:                                                 1.0E-10
  HFX_INFO| EPS_SCHWARZ_FORCES                                           1.0E-08
  HFX_INFO| EPS_STORAGE_SCALING:                                         1.0E+00
  HFX_INFO| NBINS:                                                            64
  HFX_INFO| BLOCK_SIZE:                                                        1
  HFX_INFO| Number of periodic shells considered:                           NONE
  HFX_INFO| Number of periodic cells considered:                            NONE


 Number of electrons:                                                         30
 Number of occupied orbitals:                                                 15
 Number of molecular orbitals:                                               146

 Number of orbital functions:                                                146
 Number of independent orbital functions:                                    146

 Extrapolation method: initial_guess

 *** WARNING in qs_initial_guess.F:306 :: User requested to restart the   ***
 *** wavefunction from the file named: Butadiene-RESTART.wfn. This file   ***
 *** does not exist. Please check the existence of the file or change     ***
 *** properly the value of the keyword WFN_RESTART_FILE_NAME. Calculation ***
 *** continues using ATOMIC GUESS.                                        ***


 Atomic guess: The first density matrix is obtained in terms of atomic orbitals
               and electronic configurations assigned to each atomic kind

 Guess for atomic kind: H

 Electronic structure
    Total number of core electrons                                          0.00
    Total number of valence electrons                                       1.00
    Total number of electrons                                               1.00
    Multiplicity                                                   not specified
    S      1.00


 *******************************************************************************
                  Iteration          Convergence                     Energy [au]
 *******************************************************************************
                          1        0.880988E-02                  -0.444778274653
                          2        0.791349E-03                  -0.444877834394
                          3        0.111042E-03                  -0.444880192149
                          4        0.306660E-07                  -0.444880212296

 Energy components [Hartree]           Total Energy ::           -0.444880212296
                                        Band Energy ::           -0.232361879729
                                     Kinetic Energy ::            0.420568354334
                                   Potential Energy ::           -0.865448566630
                                      Virial (-V/T) ::            2.057807150044
                                        Core Energy ::           -0.495477856147
                                          XC Energy ::           -0.232385335983
                                     Coulomb Energy ::            0.282982979834

 Orbital energies  State     L     Occupation   Energy[a.u.]          Energy[eV]

                       1     0          1.000      -0.232362           -6.322888


 Total Electron Density at R=0:                                         0.221399

 Guess for atomic kind: C

 Electronic structure
    Total number of core electrons                                          0.00
    Total number of valence electrons                                       6.00
    Total number of electrons                                               6.00
    Multiplicity                                                   not specified
    S      2.00  2.00
    P      2.00


 *******************************************************************************
                  Iteration          Convergence                     Energy [au]
 *******************************************************************************
                          1        0.121977                     -37.400018089324
                          2        0.904329E-01                 -37.406032348656
                          3        0.638681E-03                 -37.414959418976
                          4        0.141121E-03                 -37.414959795862
                          5        0.446247E-06                 -37.414959815731

 Energy components [Hartree]           Total Energy ::          -37.414959815731
                                        Band Energy ::          -21.286259476185
                                     Kinetic Energy ::           37.482739917864
                                   Potential Energy ::          -74.897699733595
                                      Virial (-V/T) ::            1.998191698305
                                        Core Energy ::          -50.304318516063
                                          XC Energy ::           -4.741579470163
                                     Coulomb Energy ::           17.630938170495

 Orbital energies  State     L     Occupation   Energy[a.u.]          Energy[eV]

                       1     0          2.000      -9.942952         -270.561481
                       2     0          2.000      -0.501864          -13.656426

                       1     1          2.000      -0.198313           -5.396382


 Total Electron Density at R=0:                                       121.940282
 Re-scaling the density matrix to get the right number of electrons
                  # Electrons              Trace(P)               Scaling factor
                           30                30.000                        1.000


 SCF WAVEFUNCTION OPTIMIZATION

  Step     Update method      Time    Convergence         Total energy    Change
  ------------------------------------------------------------------------------

  HFX_MEM_INFO| Est. max. program size before HFX [MiB]:                    1244
  HFX_MEM_INFO| Number of cart. primitive ERI's calculated:            299600979
  HFX_MEM_INFO| Number of sph. ERI's calculated:                        73245055
  HFX_MEM_INFO| Number of sph. ERI's stored in-core:                    73245055
  HFX_MEM_INFO| Number of sph. ERI's stored on disk:                           0
  HFX_MEM_INFO| Number of sph. ERI's calculated on the fly:                    0
  HFX_MEM_INFO| Total memory consumption ERI's RAM [MiB]:                    193
  HFX_MEM_INFO| Whereof max-vals [MiB]:                                        1
  HFX_MEM_INFO| Total compression factor ERI's RAM:                         2.90
  HFX_MEM_INFO| Total memory consumption ERI's disk [MiB]:                     0
  HFX_MEM_INFO| Total compression factor ERI's disk:                        0.00
  HFX_MEM_INFO| Size of density/Fock matrix [MiB]:                             0
  HFX_MEM_INFO| Size of buffers [MiB]:                                         0
  HFX_MEM_INFO| Est. max. program size after HFX  [MiB]:                    1548

     1 NoMix/Diag. 0.40E+00    5.2     1.55758254      -156.5230612726 -1.57E+02
     2 Broy./Diag. 0.40E+00    3.1     0.27143137      -153.2970532793  3.23E+00
     3 Broy./Diag. 0.40E+00    3.1     0.34536148      -155.1492772191 -1.85E+00
     4 Broy./Diag. 0.40E+00    3.2     0.09116115      -155.7513068811 -6.02E-01
     5 Broy./Diag. 0.40E+00    3.2     0.03784073      -155.6290705807  1.22E-01
     6 Broy./Diag. 0.40E+00    3.3     0.01977173      -155.7892794266 -1.60E-01
     7 Broy./Diag. 0.40E+00    3.2     0.01562106      -155.7964135670 -7.13E-03
     8 Broy./Diag. 0.40E+00    3.2     0.00484136      -155.7791757856  1.72E-02
     9 Broy./Diag. 0.40E+00    3.2     0.00554704      -155.8028212533 -2.36E-02
    10 Broy./Diag. 0.40E+00    3.2     0.01113954      -155.8070919515 -4.27E-03
    11 Broy./Diag. 0.40E+00    3.2     0.00323870      -155.8082494704 -1.16E-03
    12 Broy./Diag. 0.40E+00    3.2     0.00471107      -155.8116231700 -3.37E-03
    13 Broy./Diag. 0.40E+00    3.2     0.00246883      -155.8088014904  2.82E-03
    14 Broy./Diag. 0.40E+00    3.3     0.00279806      -155.8081256599  6.76E-04
    15 Broy./Diag. 0.40E+00    3.2     0.00364388      -155.8089942376 -8.69E-04
    16 Broy./Diag. 0.40E+00    3.3     0.00277014      -155.8086007364  3.94E-04
    17 Broy./Diag. 0.40E+00    3.2     0.00026923      -155.8091357736 -5.35E-04
    18 Broy./Diag. 0.40E+00    3.2     0.00034760      -155.8092184404 -8.27E-05
    19 Broy./Diag. 0.40E+00    3.2     0.00131542      -155.8089292296  2.89E-04
    20 Broy./Diag. 0.40E+00    3.2     0.00101615      -155.8091496291 -2.20E-04
    21 Broy./Diag. 0.40E+00    3.2     0.00007833      -155.8092891547 -1.40E-04
    22 Broy./Diag. 0.40E+00    3.2     0.00053200      -155.8091646876  1.24E-04
    23 Broy./Diag. 0.40E+00    3.2     0.00061811      -155.8092128644 -4.82E-05
    24 Broy./Diag. 0.40E+00    3.2     0.00017059      -155.8091839396  2.89E-05
    25 Broy./Diag. 0.40E+00    3.3     0.00017733      -155.8091569460  2.70E-05
    26 Broy./Diag. 0.40E+00    3.3     0.00027529      -155.8091782218 -2.13E-05
    27 Broy./Diag. 0.40E+00    3.2     0.00024009      -155.8091552317  2.30E-05
    28 Broy./Diag. 0.40E+00    3.2     0.00003974      -155.8091473644  7.87E-06
    29 Broy./Diag. 0.40E+00    3.2     0.00002369      -155.8091547812 -7.42E-06
    30 Broy./Diag. 0.40E+00    3.2     0.00005472      -155.8091452659  9.52E-06
    31 Broy./Diag. 0.40E+00    3.3     0.00003869      -155.8091492081 -3.94E-06
    32 Broy./Diag. 0.40E+00    3.3     0.00006483      -155.8091542107 -5.00E-06
    33 Broy./Diag. 0.40E+00    3.3     0.00001139      -155.8091526321  1.58E-06
    34 Broy./Diag. 0.40E+00    3.3     0.00000462      -155.8091532715 -6.39E-07
    35 Broy./Diag. 0.40E+00    3.3     0.00000464      -155.8091538246 -5.53E-07
    36 Broy./Diag. 0.40E+00    3.3     0.00000353      -155.8091535452  2.79E-07
    37 Broy./Diag. 0.40E+00    3.3     0.00000229      -155.8091536072 -6.19E-08
    38 Broy./Diag. 0.40E+00    3.2     0.00000134      -155.8091534666  1.41E-07
    39 Broy./Diag. 0.40E+00    3.2     0.00000180      -155.8091532936  1.73E-07
    40 Broy./Diag. 0.40E+00    3.3     0.00000057      -155.8091535480 -2.54E-07
    41 Broy./Diag. 0.40E+00    3.2     0.00000028      -155.8091536472 -9.92E-08
    42 Broy./Diag. 0.40E+00    3.2     0.00000027      -155.8091536560 -8.83E-09
    43 Broy./Diag. 0.40E+00    3.3     0.00000006      -155.8091536842 -2.82E-08
    44 Broy./Diag. 0.40E+00    3.2     0.00000016      -155.8091536639  2.03E-08
    45 Broy./Diag. 0.40E+00    3.2     0.00000005      -155.8091536683 -4.38E-09
    46 Broy./Diag. 0.40E+00    3.2     0.00000005      -155.8091536898 -2.15E-08
    47 Broy./Diag. 0.40E+00    3.2     0.00000005      -155.8091536843  5.41E-09
    48 Broy./Diag. 0.40E+00    3.3     0.00000004      -155.8091536850 -6.51E-10
    49 Broy./Diag. 0.40E+00    3.2     0.00000002      -155.8091536883 -3.30E-09
    50 Broy./Diag. 0.40E+00    3.2     0.00000002      -155.8091536856  2.73E-09
    51 Broy./Diag. 0.40E+00    3.2     0.00000001      -155.8091536855  5.12E-11
    52 Broy./Diag. 0.40E+00    3.2     0.00000002      -155.8091536850  5.14E-10
    53 Broy./Diag. 0.40E+00    3.2     5.3185E-09      -155.8091536841  8.75E-10
    54 Broy./Diag. 0.40E+00    3.2     5.3665E-09      -155.8091536854 -1.25E-09
    55 Broy./Diag. 0.40E+00    3.2     4.3603E-09      -155.8091536858 -4.32E-10
    56 Broy./Diag. 0.40E+00    3.2     2.3579E-09      -155.8091536858  6.57E-11
    57 Broy./Diag. 0.40E+00    3.2     7.5840E-10      -155.8091536860 -2.28E-10

  *** SCF run converged in    57 steps ***


  Electronic density on regular grids:        -22.5149275678        7.4850724322
  Core density on regular grids:               30.0000000000       -0.0000000000
  Hard and soft densities (Lebedev):         -184.0938250586     -176.6087523667
  Total Rho_soft + Rho1_hard - Rho1_soft      -30.0000002597
  Total charge density (r-space):              -0.0000002597
  Total Rho_soft + Rho0_soft (g-space):        -0.0000003060

  Overlap energy of the core charge distribution:               0.00001344668372
  Self energy of the core charge distribution:               -124.91383022942121
  Core Hamiltonian energy:                                    -26.46221562462689
  Hartree energy:                                              50.99319118501172
  Exchange-correlation energy:                                 -7.24508532925520
  Hartree-Fock Exchange energy:                                -5.69546823309306

  GAPW| Exc from hard and soft atomic rho1:                   -10.72796046197908
  GAPW| local Eh = 1 center integrals:                        -31.75779843929957

  Total energy:                                              -155.80915368597957

 !-----------------------------------------------------------------------------!
                     Mulliken Population Analysis

 #  Atom  Element  Kind  Atomic population                           Net charge
       1     H        1          1.428542                             -0.428542
       2     H        1          1.428542                             -0.428542
       3     H        1          1.461713                             -0.461713
       4     H        1          1.461713                             -0.461713
       5     H        1          1.665949                             -0.665949
       6     H        1          1.665949                             -0.665949
       7     C        2          4.806432                              1.193568
       8     C        2          4.806432                              1.193568
       9     C        2          5.637364                              0.362636
      10     C        2          5.637364                              0.362636
 # Total charge                             30.000000                  0.000000

 !-----------------------------------------------------------------------------!

 !-----------------------------------------------------------------------------!
                           Hirshfeld Charges

  #Atom  Element  Kind  Ref Charge     Population                    Net charge
      1       H      1       1.000          0.506                         0.494
      2       H      1       1.000          0.506                         0.494
      3       H      1       1.000          0.507                         0.493
      4       H      1       1.000          0.507                         0.493
      5       H      1       1.000          0.510                         0.490
      6       H      1       1.000          0.510                         0.490
      7       C      2       6.000          6.471                        -0.471
      8       C      2       6.000          6.471                        -0.471
      9       C      2       6.000          6.988                        -0.988
     10       C      2       6.000          6.988                        -0.988

  Total Charge                                                            0.036
 !-----------------------------------------------------------------------------!

 MOMENTS
  The electric/magnetic moments are written to file:
  Butadiene-MOMENTS-moments-1.dat

  
 -------------------------------------------------------------------------------
 -                                                                             -
 -                          BANDSTRUCTURE CALCULATION                          -
 -                                                                             -
 -------------------------------------------------------------------------------
  
 Number of occupied molecular orbitals (MOs) = Number of occupied bands       15
 Number of unoccupied (= virtual) MOs = Number of unoccupied bands           131
 Number of Gaussian basis functions for MOs                                  146
 K-point mesh for the density of states (DOS) and the self-energy      1   1   1
  
 -------------------------------------------------------------------------------
 -                                                                             -
 -                              GW CALCULATION                                 -
 -                                                                             -
 -------------------------------------------------------------------------------
  
 Input: Number of time/freq. points                                           30
 Input: Filter threshold for sparse tensor operations                    1.0E-08
 Apply Hedin shift                                                             F
  
 Number of auxiliary Gaussian basis functions for , , W                    426
 Cutoff radius for the truncated Coulomb operator in ^x:               2645.9 
 Cutoff radius for the truncated Coulomb operator in RI metric:            3.0 
 Regularization parameter of RI                                          0.0E+00
 Lattice sum size for V(k):                                                    3
  
 K-point mesh 1 for , , W                                            1   1   1
 K-point mesh 2 for , , W (for k-point extrapolation of W)           1   1   1
 Approximate the k-point extrapolation                                         F
 Group size for tensor operations                                             16
 
 Computed 3-center integrals (|P), execution time                        0.6 s
 Percentage of non-zero (|P)                                         100.000 %
 Max. distance between , in non-zero (|P)                              5.6 A
 Required memory if storing all 3-center integrals (|P)                   0 GB
 
 Number of i and j atoms in M_P(), N_Q():                               24
 Number of inner loop atoms for  in M_P = sum_ (|P) G_                10
 
 SCF direct band gap (eV)                                                   5.82
 Max. SCF eigval diff. (eV)                                               370.16
 E-Range for minimax grid                                                  63.63
 Number of Pad parameters for analytic continuation:                         16
 
 Computed (i,k=0) for time point            1 / 30,    Execution time    0.3 s
 Computed (i,k=0) for time point            2 / 30,    Execution time    0.3 s
 Computed (i,k=0) for time point            3 / 30,    Execution time    0.3 s
 Computed (i,k=0) for time point            4 / 30,    Execution time    0.3 s
 Computed (i,k=0) for time point            5 / 30,    Execution time    0.3 s
 Computed (i,k=0) for time point            6 / 30,    Execution time    0.3 s
 Computed (i,k=0) for time point            7 / 30,    Execution time    0.3 s
 Computed (i,k=0) for time point            8 / 30,    Execution time    0.3 s
 Computed (i,k=0) for time point            9 / 30,    Execution time    0.3 s
 Computed (i,k=0) for time point           10 / 30,    Execution time    0.3 s
 Computed (i,k=0) for time point           11 / 30,    Execution time    0.3 s
 Computed (i,k=0) for time point           12 / 30,    Execution time    0.3 s
 Computed (i,k=0) for time point           13 / 30,    Execution time    0.3 s
 Computed (i,k=0) for time point           14 / 30,    Execution time    0.3 s
 Computed (i,k=0) for time point           15 / 30,    Execution time    0.3 s
 Computed (i,k=0) for time point           16 / 30,    Execution time    0.3 s
 Computed (i,k=0) for time point           17 / 30,    Execution time    0.3 s
 Computed (i,k=0) for time point           18 / 30,    Execution time    0.3 s
 Computed (i,k=0) for time point           19 / 30,    Execution time    0.3 s
 Computed (i,k=0) for time point           20 / 30,    Execution time    0.3 s
 Computed (i,k=0) for time point           21 / 30,    Execution time    0.3 s
 Computed (i,k=0) for time point           22 / 30,    Execution time    0.3 s
 Computed (i,k=0) for time point           23 / 30,    Execution time    0.2 s
 Computed (i,k=0) for time point           24 / 30,    Execution time    0.2 s
 Computed (i,k=0) for time point           25 / 30,    Execution time    0.2 s
 Computed (i,k=0) for time point           26 / 30,    Execution time    0.2 s
 Computed (i,k=0) for time point           27 / 30,    Execution time    0.2 s
 Computed (i,k=0) for time point           28 / 30,    Execution time    0.2 s
 Computed (i,k=0) for time point           29 / 30,    Execution time    0.2 s
 Computed (i,k=0) for time point           30 / 30,    Execution time    0.2 s
 
 Computed W(i,k) for k-point batch           1 /  1,    Execution time    1.8 s
 
 Computed ^x(k=0),                                      Execution time    0.3 s
 
 Computed ^c(i,k=0) for time point          1 / 30,    Execution time    0.4 s
 Computed ^c(i,k=0) for time point          2 / 30,    Execution time    0.4 s
 Computed ^c(i,k=0) for time point          3 / 30,    Execution time    0.4 s
 Computed ^c(i,k=0) for time point          4 / 30,    Execution time    0.4 s
 Computed ^c(i,k=0) for time point          5 / 30,    Execution time    0.4 s
 Computed ^c(i,k=0) for time point          6 / 30,    Execution time    0.4 s
 Computed ^c(i,k=0) for time point          7 / 30,    Execution time    0.4 s
 Computed ^c(i,k=0) for time point          8 / 30,    Execution time    0.4 s
 Computed ^c(i,k=0) for time point          9 / 30,    Execution time    0.4 s
 Computed ^c(i,k=0) for time point         10 / 30,    Execution time    0.4 s
 Computed ^c(i,k=0) for time point         11 / 30,    Execution time    0.4 s
 Computed ^c(i,k=0) for time point         12 / 30,    Execution time    0.4 s
 Computed ^c(i,k=0) for time point         13 / 30,    Execution time    0.4 s
 Computed ^c(i,k=0) for time point         14 / 30,    Execution time    0.4 s
 Computed ^c(i,k=0) for time point         15 / 30,    Execution time    0.4 s
 Computed ^c(i,k=0) for time point         16 / 30,    Execution time    0.4 s
 Computed ^c(i,k=0) for time point         17 / 30,    Execution time    0.4 s
 Computed ^c(i,k=0) for time point         18 / 30,    Execution time    0.4 s
 Computed ^c(i,k=0) for time point         19 / 30,    Execution time    0.4 s
 Computed ^c(i,k=0) for time point         20 / 30,    Execution time    0.4 s
 Computed ^c(i,k=0) for time point         21 / 30,    Execution time    0.4 s
 Computed ^c(i,k=0) for time point         22 / 30,    Execution time    0.4 s
 Computed ^c(i,k=0) for time point         23 / 30,    Execution time    0.4 s
 Computed ^c(i,k=0) for time point         24 / 30,    Execution time    0.0 s
 Computed ^c(i,k=0) for time point         25 / 30,    Execution time    0.0 s
 Computed ^c(i,k=0) for time point         26 / 30,    Execution time    0.0 s
 Computed ^c(i,k=0) for time point         27 / 30,    Execution time    0.0 s
 Computed ^c(i,k=0) for time point         28 / 30,    Execution time    0.0 s
 Computed ^c(i,k=0) for time point         29 / 30,    Execution time    0.0 s
 Computed ^c(i,k=0) for time point         30 / 30,    Execution time    0.0 s
 
 Sparsity of ^c(i,k=0): Percentage of skipped atom pairs:               25.0 %
 Retaining nl_3c for RTBSE

 
 SCF valence band maximum (eV):                                           -6.782
 SCF conduction band minimum (eV):                                        -0.965
 SCF indirect band gap (eV):                                               5.818
 SCF direct band gap (eV):                                                 5.818
 
 G0W0 valence band maximum (eV):                                          -8.506
 G0W0 conduction band minimum (eV):                                        0.887
 G0W0 indirect band gap (eV):                                              9.394
 G0W0 direct band gap (eV):                                                9.394
 
 Hartree-Fock with SCF orbitals valence band maximum (eV):                -8.411
 Hartree-Fock with SCF orbitals conduction band minimum (eV)               1.313
 Hartree-Fock with SCF orbitals indirect band gap (eV):                    9.724
 Hartree-Fock with SCF orbitals direct band gap (eV):                      9.724

 ENERGY| Total FORCE_EVAL ( QS ) energy [a.u.]:             -155.809153685979567
 RTBSE| Approximate size of the 3c integrals                       0.69E+002 MiB
 
 /-----------------------------------------------------------------------------\
 |                                                                             |
 |                    Real Time Bethe-Salpeter Propagation                     |
 |                                                                             |
 \-----------------------------------------------------------------------------/
 
 Exponential method                                                          BCH
 Reference Hamiltonian                                                      G0W0
 Apply delta pulse                                                             T


 *** WARNING in emd/rt_bse_io.F:482 :: Restart required but no info file ***
 *** found - starting from sim_step given in input                       ***


 *** WARNING in emd/rt_bse_io.F:508 :: Restart without some restart ***
 *** matrices - starting from SCF density.                          ***


 *** WARNING in emd/rt_bse_io.F:561 :: Restart without previous moments - ***
 *** unknown moments trace set to zero.                                   ***

 RTBSE| Applying delta puls
 RTBSE| Delta pulse elements (a.u.) :   -0.1000E-003  -0.0000E+000  -0.0000E+000
 RTBSE| Metric difference after delta kick                       0.21379011E-003
 RTBSE| Simulation step         Convergence     Electron number  ETRS Iterations
 RTBSE|               0     0.45931016E-008     0.30000000E+002                2
 RTBSE| Simulation step         Convergence     Electron number  ETRS Iterations
 RTBSE|               1     0.44083060E-008     0.30000000E+002                2
[...]
 flops   118 x   128 x    95              5739520       0.0%    100.0%      0.0%     
 flops    95 x   128 x   118              5739520       0.0%    100.0%      0.0%     
 flops    72 x   106 x    95              5800320       0.0%    100.0%      0.0%     
 flops   118 x   106 x   118              5903776       0.0%    100.0%      0.0%     
 flops    23 x    96 x   118              6253056       0.0%    100.0%      0.0%     
 flops    95 x    96 x    95              6931200       0.0%    100.0%      0.0%     
 flops    72 x   128 x    95              7004160       0.0%    100.0%      0.0%     
 flops   118 x   128 x   118              7129088       0.0%    100.0%      0.0%     
 flops    72 x   106 x   118              7204608       0.0%    100.0%      0.0%     
 flops   118 x    96 x    95              8609280       0.0%    100.0%      0.0%     
 flops    95 x    96 x   118              8609280       0.0%    100.0%      0.0%     
 flops    72 x   128 x   118              8699904       0.0%    100.0%      0.0%     
 flops     9 x     9 x    50              9695700       0.0%    100.0%      0.0%     
 flops    72 x    96 x    95             10506240       0.0%    100.0%      0.0%     
 flops   118 x    96 x   118             10693632       0.0%    100.0%      0.0%     
 flops    72 x    96 x   118             13049856       0.0%    100.0%      0.0%     
 flops     9 x    23 x    50             14158800       0.0%    100.0%      0.0%     
 flops    23 x     9 x    50             14158800       0.0%    100.0%      0.0%     
 flops     9 x     9 x    32             18615744       0.0%    100.0%      0.0%     
 flops     9 x    23 x    32             27184896       0.0%    100.0%      0.0%     
 flops    23 x     9 x    32             27184896       0.0%    100.0%      0.0%     
 flops    23 x    23 x    50             30153000       0.0%    100.0%      0.0%     
 flops    23 x    23 x    32             57893760       0.0%    100.0%      0.0%     
 flops inhomo. stacks                           0       0.0%      0.0%      0.0%
 flops total                       353.663148E+06       0.0%    100.0%      0.0%
 flops max/rank                     30.396600E+06       0.0%    100.0%      0.0%
 matmuls inhomo. stacks                         0       0.0%      0.0%      0.0%
 matmuls total                              12652       0.0%    100.0%      0.0%
 number of processed stacks                 11056       0.0%    100.0%      0.0%
 average stack size                                     0.0       1.1       0.0
 marketing flops                   191.067904E+06
 -------------------------------------------------------------------------------
 # multiplications                             58
 max memory usage/rank               1.805328E+09
 # max total images/rank                        1
 # max 3D layers                                1
 # MPI messages exchanged                    5568
 MPI messages size (bytes):
  total size                        67.031424E+06
  min size                           8.192000E+03
  max size                         120.832000E+03
  average size                      12.038689E+03
 MPI breakdown and total messages size (bytes):
             size <=      128                   0                        0
       128 < size <=     8192                2052                 16809984
      8192 < size <=    32768                3420                 41510592
     32768 < size <=   131072                  96                  8710848
    131072 < size <=  4194304                   0                        0
   4194304 < size <= 16777216                   0                        0
  16777216 < size                               0                        0
 -------------------------------------------------------------------------------
 -                                                                             -
 -                      DBCSR MESSAGE PASSING PERFORMANCE                      -
 -                                                                             -
 -------------------------------------------------------------------------------
 ROUTINE             CALLS      AVE VOLUME [Bytes]
 MP_Bcast               33                     12.
 MP_Allreduce          550                     11.
 MP_Alltoall          6576                   9398.
 MP_ISend              928                   4254.
 MP_IRecv              928                   3732.
 -------------------------------------------------------------------------------

 -------------------------------------------------------------------------------
 -                                                                             -
 -                                DBM STATISTICS                               -
 -                                                                             -
 -------------------------------------------------------------------------------
    M  x    N  x    K                                          COUNT     PERCENT
    ?  x    ?  x    ?                                        3479286      49.99%
   ??  x  ???  x   ??                                         518400       7.45%
  ???  x    ?  x    ?                                         435456       6.26%
   ??  x   ??  x   ??                                         366076       5.26%
    ?  x    ?  x  ???                                         299850       4.31%
  ???  x    ?  x   ??                                         295344       4.24%
  ???  x   ??  x    ?                                         295344       4.24%
   ??  x   ??  x  ???                                         271080       3.89%
  ???  x   ??  x   ??                                         201600       2.90%
    ?  x   ??  x  ???                                         200616       2.88%
   ??  x    ?  x  ???                                         200488       2.88%
 >999  x    ?  x    ?                                          82944       1.19%
    ?  x    ?  x >999                                          58231       0.84%
 >999  x    ?  x   ??                                          56256       0.81%
 >999  x   ??  x    ?                                          56256       0.81%
    ?  x   ??  x >999                                          39079       0.56%
   ??  x    ?  x >999                                          39070       0.56%
 >999  x   ??  x   ??                                          38400       0.55%
   ??  x   ??  x >999                                          26110       0.38%
 -------------------------------------------------------------------------------

 -------------------------------------------------------------------------------
 -                                                                             -
 -                                GRID STATISTICS                              -
 -                                                                             -
 -------------------------------------------------------------------------------
 LP    KERNEL             BACKEND                              COUNT     PERCENT
 1     collocate ortho    CPU                                  68324      18.16%
 1     integrate ortho    CPU                                  68324      18.16%
 0     collocate ortho    CPU                                  48198      12.81%
 0     integrate ortho    CPU                                  48198      12.81%
 2     collocate ortho    CPU                                  44950      11.95%
 2     integrate ortho    CPU                                  44950      11.95%
 3     collocate ortho    CPU                                  14848       3.95%
 3     integrate ortho    CPU                                  14848       3.95%
 2     collocate general  CPU                                   9280       2.47%
 2     integrate general  CPU                                   9280       2.47%
 4     collocate ortho    CPU                                   2320       0.62%
 4     integrate ortho    CPU                                   2320       0.62%
 0     collocate general  CPU                                    160       0.04%
 0     integrate general  CPU                                    160       0.04%
 -------------------------------------------------------------------------------

 MEMORY| Estimated peak process memory [MiB]                                1729

 -------------------------------------------------------------------------------
 ----                             MULTIGRID INFO                            ----
 -------------------------------------------------------------------------------
 count for grid        1:         116522          cutoff [a.u.]          300.00
 count for grid        2:          20233          cutoff [a.u.]          100.00
 count for grid        3:          20070          cutoff [a.u.]           33.33
 count for grid        4:          11487          cutoff [a.u.]           11.11
 total gridlevel count  :         168312

 -------------------------------------------------------------------------------
 -                                                                             -
 -                         MESSAGE PASSING PERFORMANCE                         -
 -                                                                             -
 -------------------------------------------------------------------------------

 ROUTINE             CALLS      AVE VOLUME [Bytes]
 MP_Group             4629
 MP_Bcast             3916                   8986.
 MP_Allreduce         9209                   2709.
 MP_Sync              4907
 MP_Alltoall          4245               25130810.
 MP_SendRecv          1740                 337600.
 MP_ISendRecv         3510                 172087.
 MP_Wait             16249
 MP_comm_split        2602
 MP_ISend            21227                 554220.
 MP_IRecv            21457                 548390.
 -------------------------------------------------------------------------------


 -------------------------------------------------------------------------------
 -                                                                             -
 -                           R E F E R E N C E S                               -
 -                                                                             -
 -------------------------------------------------------------------------------
 
 CP2K version 2024.3 (Development Version), the CP2K developers group (2024).
 CP2K is freely available from https://www.cp2k.org/ .
 
 M. Graml, K. Zollner, D. Hernangmez-Prez, P. E. Faria Junior, J. Wilhelm.
 J. Chem. Theory Comput. 20, 2202-2208 (2024).
 Low-scaling GW algorithm applied to twisted transition-metal dichalcogenide 
 heterobilayers.
 https://doi.org/10.1021/acs.jctc.3c01230

 T. D. Kuehne, M. Iannuzzi, M. Del Ben, V. V. Rybkin, P. Seewald, F. Stein, T. 
 Laino, R. Z. Khaliullin, O. Schuett, F. Schiffmann, D. Golze, J. Wilhelm, S. 
 Chulkov, M. H. Bani-Hashemian, V. Weber, U. Borstnik, M. Taillefumier, A. S. 
 Jakobovits, A. Lazzaro, H. Pabst, T. Mueller, R. Schade, M. Guidon, S. 
 Andermatt, N. Holmberg, G. K. Schenter, A. Hehn, A. Bussy, F. Belleflamme, G. 
 Tabacchi, A. Gloess, M. Lass, I. Bethune, C. J. Mundy, C. Plessl, M. Watkins, 
 J. VandeVondele, M. Krack, J. Hutter.
 J. Chem. Phys. 152, 194103 (2020).
 CP2K: An electronic structure and molecular dynamics software package - 
 Quickstep: Efficient and accurate electronic structure calculations.
 https://doi.org/10.1063/5.0007045

 O. Schuett, P. Messmer, J. Hutter, J. VandeVondele.
 Electronic Structure Calculations on Graphics Processing Units, 173-190 (2016).
 GPU-Accelerated Sparse Matrix-Matrix Multiplication for Linear Scaling Density 
 Functional Theory.
 https://doi.org/10.1002/9781118670712.ch8

 A. Heinecke, G. Henry, M. Hutchinson, H. Pabst.
 Proceedings of Intl. Supercomputing Conference, 981-991 (2016).
 LIBXSMM: Accelerating Small Matrix Multiplications by Runtime Code Generation.
 https://doi.org/10.1109/SC.2016.83

 J. Hutter, M. Iannuzzi, F. Schiffmann, J. VandeVondele.
 WIREs Comput Mol Sci. 4, 15-25 (2014).
 CP2K: atomistic simulations of condensed matter systems.
 https://doi.org/10.1002/wcms.1159

 U. Borstnik, J. VandeVondele, V. Weber, J. Hutter.
 Parallel Comput. 40, 47-58 (2014).
 Sparse matrix multiplication: The distributed block-compressed sparse row 
 library.
 https://doi.org/10.1016/j.parco.2014.03.012

 M. Guidon, J. Hutter, J. VandeVondele.
 J. Chem. Theory Comput. 5, 3010-3021 (2009).
 Robust Periodic Hartree-Fock Exchange for Large-Scale Simulations Using 
 Gaussian Basis Sets.
 https://doi.org/10.1021/ct900494g

 M. Guidon, F. Schiffmann, J. Hutter, J. VandeVondele.
 J. Chem. Phys. 128, 214104 (2008).
 Ab initio molecular dynamics using hybrid density functionals.
 https://doi.org/10.1063/1.2931945

 L. Genovese, T. Deutsch, S. Goedecker.
 J. Chem. Phys. 127, 054704 (2007).
 Efficient and accurate three-dimensional Poisson solver for surface problems.
 https://doi.org/10.1063/1.2754685

 L. Genovese, T. Deutsch, A. Neelov, S. Goedecker, G. Beylkin.
 J. Chem. Phys. 125, 074105 (2006).
 Efficient solution of Poisson's equation with free boundary conditions.
 https://doi.org/10.1063/1.2335442

 M. Frigo, S. G. Johnson.
 Proc. IEEE 93, 216-231 (2005).
 The design and implementation of FFTW3.
 https://doi.org/10.1109/JPROC.2004.840301

 M. Krack, M. Parrinello.
 Phys. Chem. Chem. Phys. 2, 2105-2112 (2000).
 All-electron ab-initio molecular dynamics.
 https://doi.org/10.1039/b001167n

 G. Lippert, J. Hutter, M. Parrinello.
 Theor. Chem. Acc. 103, 124-140 (1999).
 The Gaussian and augmented-plane-wave density functional method for ab initio 
 molecular dynamics simulations.
 https://doi.org/10.1007/s002140050523

 J. P. Perdew, K. Burke, M. Ernzerhof.
 Phys. Rev. Lett. 77, 3865-3868 (1996).
 Generalized gradient approximation made simple.
 https://doi.org/10.1103/PhysRevLett.77.3865


 -------------------------------------------------------------------------------
 -                                                                             -
 -                                T I M I N G                                  -
 -                                                                             -
 -------------------------------------------------------------------------------
 SUBROUTINE                       CALLS  ASD         SELF TIME        TOTAL TIME
                                MAXIMUM       AVERAGE  MAXIMUM  AVERAGE  MAXIMUM
 CP2K                                 1  1.0    0.022    0.028  217.085  217.086
 run_propagation_bse                  1  2.0    0.002    0.007  216.389  216.391
 qs_energies                          1  3.0    0.000    0.000  209.888  209.904
 scf_env_do_scf                       1  4.0    0.000    0.000  187.027  187.030
 scf_env_do_scf_inner_loop           57  5.0    0.002    0.003  187.027  187.030
 qs_ks_build_kohn_sham_matrix        58  8.0    0.009    0.010  149.677  149.679
 qs_ks_update_qs_env                 57  6.0    0.000    0.000  148.260  148.262
 rebuild_ks_matrix                   57  7.0    0.000    0.000  148.257  148.259
 fft_wrap_pw1pw2                   1209 11.0    0.027    0.032   97.948  101.977
 fft_wrap_pw1pw2_300                861 12.1    4.227    4.456   95.102   99.035
 fft3d_ps                          1209 13.0   40.169   40.849   76.314   80.326
 qs_vxc_create                       58  9.0    0.001    0.001   63.211   63.211
 xc_vxc_pw_create                    57 10.0    0.886    0.949   63.210   63.211
 pw_poisson_solve                    58  9.0    1.347    1.407   48.499   48.529
 xc_pw_derive                       342 12.0    0.005    0.006   43.615   47.331
 xc_rho_set_and_dset_create          57 11.0    0.714    0.817   32.809   35.090
 xc_pw_divergence                    57 11.0    0.003    0.003   29.098   32.793
 ps_wavelet_solve                    58 10.0   23.726   24.400   27.087   27.134
 qs_rho_update_rho_low               58  6.0    0.001    0.001   22.480   22.481
 calculate_rho_elec                  58  7.0    0.690    0.700   22.439   22.441
 qs_energies_properties               1  4.0    0.000    0.000   21.992   22.008
 post_scf_bandstructure               1  5.0    0.000    0.000   21.992   22.008
 gw                                   1  6.0    0.000    0.000   21.958   21.959
 mp_alltoall_z22v                  1209 15.0   16.723   20.655   16.723   20.655
 yz_to_x                            577 13.8    7.019    7.405   16.428   20.084
 x_to_yz                            632 14.1   12.386   12.768   19.700   20.054
 gw_calc_large_cell_Gamma             1  7.0    0.000    0.000   19.609   19.615
 density_rs2pw                       58  8.0    0.003    0.004   18.100   18.280
 gspace_mixing                       56  6.0    0.666    0.676   16.226   16.227
 sum_up_and_integrate                58  9.0    0.001    0.001   12.344   12.372
 dbt_total                          794  8.9    0.005    0.005   12.122   12.123
 integrate_v_rspace                  58 10.0    0.002    0.002   12.056   12.104
 potential_pw2rs                     58 11.0    0.033    0.036   11.610   11.658
 xc_functional_eval                 285 11.4    0.001    0.001    9.473   11.563
 pbe_lda_eval                       285 12.4    9.472   11.563    9.472   11.563
 dbt_contract                       379  8.7    0.019    0.020   11.137   11.240
 compute_3c_integrals               132  9.5    0.003    0.003   10.914   10.914
 build_3c_integrals                 136 10.5    8.232    9.551    9.297   10.310
 get_Sigma_c                          1  8.0    0.001    0.001   10.082   10.083
 prepare_gapw_den                    58  9.0    0.001    0.001    9.839    9.971
 dbt_tas_multiply                   716 11.1    0.002    0.002    9.764    9.837
 put_rho0_on_grid                    58 10.0    0.703    0.731    9.624    9.756
 dbt_tas_total                      716 12.1    0.094    0.098    9.681    9.681
 broyden_mixing                      56  7.0    8.965    9.253    9.265    9.320
 pw_scatter_p                       632 13.1    7.301    7.382    7.301    7.382
 get_mat_chi_Gamma_tau                1  8.0    0.001    0.002    7.082    7.091
 pw_gather_p                        577 12.8    6.461    6.983    6.461    6.983
 contract_to_Sigma                   47  9.0    0.001    0.001    6.907    6.908
 transfer_pw2rs                     291 11.6    0.004    0.005    6.448    6.470
 mp_waitany                        7000 12.5    5.836    5.990    5.836    5.990
 get_sigma                           57  4.0    0.002    0.002    5.949    5.949
 pw_derive                          516 12.3    5.637    5.805    5.637    5.805
 update_effective_ham                18  3.0    0.001    0.001    5.701    5.703
 transfer_rs2pw                     291  9.4    0.004    0.006    5.526    5.621
 mp_sync                           4907 11.8    3.390    5.371    3.390    5.371
 transfer_pw2rs_300                 117 12.0    1.875    1.920    5.053    5.094
 dbt_tas_dbm                        716 13.1    0.002    0.003    4.604    4.604
 dbm_multiply                       716 15.1    4.265    4.556    4.265    4.556
 transfer_rs2pw_300                 117 11.0    1.696    1.734    4.329    4.421
 -------------------------------------------------------------------------------

 The number of warnings for this run is : 4
 
 -------------------------------------------------------------------------------
  **** **** ******  **  PROGRAM ENDED AT                 2024-12-02 15:57:28.647
 ***** ** ***  *** **   PROGRAM RAN ON                              i01r03c01s10
 **    ****   ******    PROGRAM RAN BY                                   di75qec
 ***** **    ** ** **   PROGRAM PROCESS ID                               4145345
  **** **  *******  **  PROGRAM STOPPED IN /hppfs/scratch/09/di75qec/Butadiene_s
                                           cf.4142572
