 DBCSR| CPU Multiplication driver                                           XSMM (U)
 DBCSR| Multrec recursion limit                                              512 (U)
 DBCSR| Multiplication stack size                                           1000 (D)
 DBCSR| Maximum elements for images                                    UNLIMITED (U)
 DBCSR| Multiplicative factor virtual images                                   1 (U)
 DBCSR| Use multiplication densification                                       T (D)
 DBCSR| Multiplication size stacks                                             3 (U)
 DBCSR| Use memory pool for CPU allocation                                     F (U)
 DBCSR| Number of 3D layers                                               SINGLE (U)
 DBCSR| Use MPI memory allocation                                              F (U)
 DBCSR| Use RMA algorithm                                                      F (U)
 DBCSR| Use Communication thread                                               T (U)
 DBCSR| Communication thread load                                             79 (D)
 DBCSR| MPI: My process id                                                     0
 DBCSR| MPI: Number of processes                                              16
 DBCSR| OMP: Current number of threads                                         3
 DBCSR| OMP: Max number of threads                                             3
 DBCSR| Split modifier for TAS multiplication algorithm                  1.0E+00 (U)


  **** **** ******  **  PROGRAM STARTED AT               2024-12-02 15:53:53.148
 ***** ** ***  *** **   PROGRAM STARTED ON                          i01r04c01s03
 **    ****   ******    PROGRAM STARTED BY                               di75qec
 ***** **    ** ** **   PROGRAM PROCESS ID                               2365383
  **** **  *******  **  PROGRAM STARTED IN /hppfs/scratch/09/di75qec/Norbornadie
                                           ne_scf.4142583

 CP2K| version string:                 CP2K version 2024.3 (Development Version)
 CP2K| source code revision number:                                  git:29c2adf
 CP2K| cp2kflags: omp libint fftw3 libxc parallel scalapack xsmm max_contr=4    
 CP2K| is freely available from                            https://www.cp2k.org/
 CP2K| Program compiled at                       Thu 21 Nov 2024 04:40:02 PM CET
 CP2K| Program compiled on                                               login03
 CP2K| Program compiled for                                        Supermuc-foss
 CP2K| Data directory path               /dss/dsshome1/09/di75qec/CP2K-foss/data
 CP2K| Input file name                                                   scf.inp

 GLOBAL| Force Environment number                                              1
 GLOBAL| Basis set file name                                         aug-cc-pvdz
 GLOBAL| Potential file name                                      ALL_POTENTIALS
 GLOBAL| MM Potential file name                                     MM_POTENTIAL
 GLOBAL| Coordinate file name                                          coord.xyz
 GLOBAL| Method name                                                        CP2K
 GLOBAL| Project name                                              Norbornadiene
 GLOBAL| Run type                                                 RT_PROPAGATION
 GLOBAL| FFT library                                                       FFTW3
 GLOBAL| Diagonalization library                                       ScaLAPACK
 GLOBAL| DGEMM library                                                      BLAS
 GLOBAL| Orthonormality check for eigenvectors                          DISABLED
 GLOBAL| Matrix multiplication library                                 ScaLAPACK
 GLOBAL| All-to-all communication in single precision                          F
 GLOBAL| FFTs using library dependent lengths                                  F
 GLOBAL| Grid backend                                                       AUTO
 GLOBAL| Global print level                                               MEDIUM
 GLOBAL| MPI I/O enabled                                                       T
 GLOBAL| Total number of message passing processes                            16
 GLOBAL| Number of threads for this process                                    3
 GLOBAL| This output is from process                                           0
 GLOBAL| Stack size for threads created by OpenMP (OMP_STACKSIZE)        default
 GLOBAL| CPU model name             Intel(R) Xeon(R) Platinum 8174 CPU @ 3.10GHz
 GLOBAL| CPUID                                                              1003
 GLOBAL| Compiled for CPUID                                                    0

 *** HINT in environment.F:921 :: The compiler target flags (generic) used ***
 *** to build this binary cannot exploit all extensions of this CPU model  ***
 *** (x86_avx512). Consider compiler target flags as part of FCFLAGS and   ***
 *** CFLAGS (ARCH file).                                                   ***


 MEMORY| system memory details [Kb]
 MEMORY|                        rank 0           min           max       average
 MEMORY| MemTotal             98436664      98436664      98436664      98436664
 MEMORY| MemFree              84426532      84426532      84426532      84426532
 MEMORY| Buffers                     0             0             0             0
 MEMORY| Cached                2344736       2344736       2344736       2344736
 MEMORY| Slab                  1058220       1058220       1058220       1058220
 MEMORY| SReclaimable           243520        243520        243520        243520
 MEMORY| MemLikelyFree        87014788      87014788      87014788      87014788


 *** Fundamental physical constants (SI units) ***

 *** Literature: B. J. Mohr and B. N. Taylor,
 ***             CODATA recommended values of the fundamental physical
 ***             constants: 2006, Web Version 5.1
 ***             http://physics.nist.gov/constants

 Speed of light in vacuum [m/s]                             2.99792458000000E+08
 Magnetic constant or permeability of vacuum [N/A**2]       1.25663706143592E-06
 Electric constant or permittivity of vacuum [F/m]          8.85418781762039E-12
 Planck constant (h) [J*s]                                  6.62606896000000E-34
 Planck constant (h-bar) [J*s]                              1.05457162825177E-34
 Elementary charge [C]                                      1.60217648700000E-19
 Electron mass [kg]                                         9.10938215000000E-31
 Electron g factor [ ]                                     -2.00231930436220E+00
 Proton mass [kg]                                           1.67262163700000E-27
 Fine-structure constant                                    7.29735253760000E-03
 Rydberg constant [1/m]                                     1.09737315685270E+07
 Avogadro constant [1/mol]                                  6.02214179000000E+23
 Boltzmann constant [J/K]                                   1.38065040000000E-23
 Atomic mass unit [kg]                                      1.66053878200000E-27
 Bohr radius [m]                                            5.29177208590000E-11

 *** Conversion factors ***

 [u] -> [a.u.]                                              1.82288848426455E+03
 [Angstrom] -> [Bohr] = [a.u.]                              1.88972613288564E+00
 [a.u.] = [Bohr] -> [Angstrom]                              5.29177208590000E-01
 [a.u.] -> [s]                                              2.41888432650478E-17
 [a.u.] -> [fs]                                             2.41888432650478E-02
 [a.u.] -> [J]                                              4.35974393937059E-18
 [a.u.] -> [N]                                              8.23872205491840E-08
 [a.u.] -> [K]                                              3.15774647902944E+05
 [a.u.] -> [kJ/mol]                                         2.62549961709828E+03
 [a.u.] -> [kcal/mol]                                       6.27509468713739E+02
 [a.u.] -> [Pa]                                             2.94210107994716E+13
 [a.u.] -> [bar]                                            2.94210107994716E+08
 [a.u.] -> [atm]                                            2.90362800883016E+08
 [a.u.] -> [eV]                                             2.72113838565563E+01
 [a.u.] -> [Hz]                                             6.57968392072181E+15
 [a.u.] -> [1/cm] (wave numbers)                            2.19474631370540E+05
 [a.u./Bohr**2] -> [1/cm]                                   5.14048714338585E+03
 

 CELL_TOP| Volume [angstrom^3]:                                      8000.000000
 CELL_TOP| Vector a [angstrom    20.000     0.000     0.000   |a| =    20.000000
 CELL_TOP| Vector b [angstrom     0.000    20.000     0.000   |b| =    20.000000
 CELL_TOP| Vector c [angstrom     0.000     0.000    20.000   |c| =    20.000000
 CELL_TOP| Angle (b,c), alpha [degree]:                                90.000000
 CELL_TOP| Angle (a,c), beta  [degree]:                                90.000000
 CELL_TOP| Angle (a,b), gamma [degree]:                                90.000000
 CELL_TOP| Numerically orthorhombic:                                         YES
 CELL_TOP| Periodicity                                                      NONE

 GENERATE|  Preliminary Number of Bonds generated:                             0
 GENERATE|  Achieved consistency in connectivity generation.

 CELL| Volume [angstrom^3]:                                          8000.000000
 CELL| Vector a [angstrom]:      20.000     0.000     0.000   |a| =    20.000000
 CELL| Vector b [angstrom]:       0.000    20.000     0.000   |b| =    20.000000
 CELL| Vector c [angstrom]:       0.000     0.000    20.000   |c| =    20.000000
 CELL| Angle (b,c), alpha [degree]:                                    90.000000
 CELL| Angle (a,c), beta  [degree]:                                    90.000000
 CELL| Angle (a,b), gamma [degree]:                                    90.000000
 CELL| Numerically orthorhombic:                                             YES
 CELL| Periodicity                                                          NONE

 CELL_REF| Volume [angstrom^3]:                                      8000.000000
 CELL_REF| Vector a [angstrom    20.000     0.000     0.000   |a| =    20.000000
 CELL_REF| Vector b [angstrom     0.000    20.000     0.000   |b| =    20.000000
 CELL_REF| Vector c [angstrom     0.000     0.000    20.000   |c| =    20.000000
 CELL_REF| Angle (b,c), alpha [degree]:                                90.000000
 CELL_REF| Angle (a,c), beta  [degree]:                                90.000000
 CELL_REF| Angle (a,b), gamma [degree]:                                90.000000
 CELL_REF| Numerically orthorhombic:                                         YES
 CELL_REF| Periodicity                                                      NONE

 *******************************************************************************
 *******************************************************************************
 **                                                                           **
 **     #####                         ##              ##                      **
 **    ##   ##            ##          ##              ##                      **
 **   ##     ##                       ##            ######                    **
 **   ##     ##  ##   ##  ##   #####  ##  ##   ####   ##    #####    #####    **
 **   ##     ##  ##   ##  ##  ##      ## ##   ##      ##   ##   ##  ##   ##   **
 **   ##  ## ##  ##   ##  ##  ##      ####     ###    ##   ######   ######    **
 **    ##  ###   ##   ##  ##  ##      ## ##      ##   ##   ##       ##        **
 **     #######   #####   ##   #####  ##  ##  ####    ##    #####   ##        **
 **           ##                                                    ##        **
 **                                                                           **
 **                                                ... make the atoms dance   **
 **                                                                           **
 **            Copyright (C) by CP2K developers group (2000-2024)             **
 **                      J. Chem. Phys. 152, 194103 (2020)                    **
 **                                                                           **
 *******************************************************************************

 DFT| Spin restricted Kohn-Sham (RKS) calculation                            RKS
 DFT| Multiplicity                                                             1
 DFT| Number of spin states                                                    1
 DFT| Charge                                                                   0
 DFT| Self-interaction correction (SIC)                                       NO
 DFT| Cutoffs: density                                              1.000000E-10
 DFT|          gradient                                             1.000000E-10
 DFT|          tau                                                  1.000000E-10
 DFT|          cutoff_smoothing_range                               0.000000E+00
 DFT| XC density smoothing                                                  NONE
 DFT| XC derivatives                                                          PW

 FUNCTIONAL| PBE:
 FUNCTIONAL| J.P.Perdew, K.Burke, M.Ernzerhof, Phys. Rev. Letter, vol. 77, n 18,
 FUNCTIONAL|  pp. 3865-3868, (1996)sx=0.750sc=1.000{spin unpolarized}           


 QS| Method:                                                                GAPW
 QS| Density plane wave grid type                        NON-SPHERICAL FULLSPACE
 QS| Number of grid levels:                                                    4
 QS| Density cutoff [a.u.]:                                                300.0
 QS| Multi grid cutoff [a.u.]: 1) grid level                               300.0
 QS|                           2) grid level                               100.0
 QS|                           3) grid level                                33.3
 QS|                           4) grid level                                11.1
 QS| Grid level progression factor:                                          3.0
 QS| Relative density cutoff [a.u.]:                                        30.0
 QS| Interaction thresholds: eps_pgf_orb:                                1.0E-05
 QS|                         eps_filter_matrix:                          0.0E+00
 QS|                         eps_core_charge:                            1.0E-12
 QS|                         eps_rho_gspace:                             1.0E-10
 QS|                         eps_rho_rspace:                             1.0E-10
 QS|                         eps_gvg_rspace:                             1.0E-05
 QS|                         eps_ppl:                                    1.0E-02
 QS|                         eps_ppnl:                                   1.0E-07
 QS| GAPW|      One center basis from orbital basis primitives
 QS| GAPW|                   eps_fit:                                    1.0E-04
 QS| GAPW|                   eps_iso:                                    1.0E-12
 QS| GAPW|                   eps_svd:                                    1.0E-08
 QS| GAPW|                   eps_cpc:                                    1.0E-10
 QS| GAPW|   atom-r-grid: quadrature:                                     GC_LOG
 QS| GAPW|      atom-s-grid:  max l :                                          4
 QS| GAPW|      max_l_rho0 :                                                   2


 ATOMIC KIND INFORMATION

  1. Atomic kind: H                                     Number of atoms:       8

     Orbital Basis Set                                               aug-cc-pvdz

       Number of orbital shell sets:                                           4
       Number of orbital shells:                                               5
       Number of primitive Cartesian functions:                                7
       Number of Cartesian basis functions:                                    9
       Number of spherical basis functions:                                    9
       Norm type:                                                              2

       Normalised Cartesian orbitals:

                        Set   Shell   Orbital            Exponent    Coefficient

                          1       1    1s               13.010000       0.096107
                                                         1.962000       0.163020
                                                         0.444600       0.185545
                                                         0.122000       0.073744

                          1       2    2s               13.010000       0.000000
                                                         1.962000       0.000000
                                                         0.444600       0.000000
                                                         0.122000       0.147123

                          2       1    1s                0.029740       0.051041

                          3       1    1px               0.727000       0.956881
                          3       1    1py               0.727000       0.956881
                          3       1    1pz               0.727000       0.956881

                          4       1    1px               0.141000       0.123158
                          4       1    1py               0.141000       0.123158
                          4       1    1pz               0.141000       0.123158

     RI Auxiliary Basis Set                                    aug-cc-pvdz-rifit

       Number of orbital shell sets:                                           9
       Number of orbital shells:                                               9
       Number of primitive Cartesian functions:                                9
       Number of Cartesian basis functions:                                   25
       Number of spherical basis functions:                                   23
       Norm type:                                                              2

       Normalised Cartesian orbitals:

                        Set   Shell   Orbital            Exponent    Coefficient

                          1       1    1s                5.115890       2.424381

                          2       1    1s                1.142965       0.787834

                          3       1    1s                0.291662       0.282859

                          4       1    1s                0.112720       0.138647

                          5       1    1px               1.914964       3.211004
                          5       1    1py               1.914964       3.211004
                          5       1    1pz               1.914964       3.211004

                          6       1    1px               0.986401       1.401222
                          6       1    1py               0.986401       1.401222
                          6       1    1pz               0.986401       1.401222

                          7       1    1px               0.285860       0.297942
                          7       1    1py               0.285860       0.297942
                          7       1    1pz               0.285860       0.297942

                          8       1    1dx2              1.172083       2.173136
                          8       1    1dxy              1.172083       3.763982
                          8       1    1dxz              1.172083       3.763982
                          8       1    1dy2              1.172083       2.173136
                          8       1    1dyz              1.172083       3.763982
                          8       1    1dz2              1.172083       2.173136

                          9       1    1dx2              0.303821       0.204640
                          9       1    1dxy              0.303821       0.354446
                          9       1    1dxz              0.303821       0.354446
                          9       1    1dy2              0.303821       0.204640
                          9       1    1dyz              0.303821       0.354446
                          9       1    1dz2              0.303821       0.204640

       Atomic covalent radius [Angstrom]:                                  0.320

       Atomic van der Waals radius [Angstrom]:                             1.090

     The atoms of this atomic kind are PAW atoms (GAPW):
       Hard Gaussian function radius:                                      1.200
       Rho0 radius:                                                        1.200
       Maximum GTO radius used for PAW projector construction:            24.566

     GAPW Soft Basis Set                                        aug-cc-pvdz_soft

       Number of orbital shell sets:                                           4
       Number of orbital shells:                                               5
       Number of primitive Cartesian functions:                                6
       Number of Cartesian basis functions:                                    9
       Number of spherical basis functions:                                    9
       Norm type:                                                              2

       Normalised Cartesian orbitals:

                        Set   Shell   Orbital            Exponent    Coefficient

                          1       1    1s                1.962000       0.163020
                                                         0.444600       0.185545
                                                         0.122000       0.073744

                          1       2    2s                1.962000       0.000000
                                                         0.444600       0.000000
                                                         0.122000       0.147123

                          2       1    1s                0.029740       0.051041

                          3       1    1px               0.727000       0.956881
                          3       1    1py               0.727000       0.956881
                          3       1    1pz               0.727000       0.956881

                          4       1    1px               0.141000       0.123158
                          4       1    1py               0.141000       0.123158
                          4       1    1pz               0.141000       0.123158

     AE Potential information for                                            ALL

       Description:                                       All-electron potential
                                          Krack, Parrinello, PCCP 2, 2105 (2000)

       Gaussian exponent of the core charge distribution:              12.500000
       Electronic configuration (s p d ...):                           1   0   0

  2. Atomic kind: C                                     Number of atoms:       7

     Orbital Basis Set                                               aug-cc-pvdz

       Number of orbital shell sets:                                           6
       Number of orbital shells:                                               9
       Number of primitive Cartesian functions:                               17
       Number of Cartesian basis functions:                                   25
       Number of spherical basis functions:                                   23
       Norm type:                                                              2

       Normalised Cartesian orbitals:

                        Set   Shell   Orbital            Exponent    Coefficient

                          1       1    1s             6665.000000       0.363803
                                                      1000.000000       0.675392
                                                       228.000000       1.132301
                                                        64.710000       1.654004
                                                        21.060000       1.924978
                                                         7.495000       1.448149
                                                         2.797000       0.439427
                                                         0.521500       0.006650
                                                         0.159600      -0.000574

                          1       2    2s             6665.000000      -0.076756
                                                      1000.000000      -0.146257
                                                       228.000000      -0.239407
                                                        64.710000      -0.379069
                                                        21.060000      -0.448104
                                                         7.495000      -0.484201
                                                         2.797000      -0.196168
                                                         0.521500       0.238162
                                                         0.159600       0.104468

                          1       3    3s             6665.000000       0.000000
                                                      1000.000000       0.000000
                                                       228.000000       0.000000
                                                        64.710000       0.000000
                                                        21.060000       0.000000
                                                         7.495000       0.000000
                                                         2.797000       0.000000
                                                         0.521500       0.000000
                                                         0.159600       0.179964

                          2       1    1s                0.046900       0.071827

                          3       1    1px               9.439000       0.898722
                                                         2.002000       0.711071
                                                         0.545600       0.339917
                                                         0.151700       0.063270
                          3       1    1py               9.439000       0.898722
                                                         2.002000       0.711071
                                                         0.545600       0.339917
                                                         0.151700       0.063270
                          3       1    1pz               9.439000       0.898722
                                                         2.002000       0.711071
                                                         0.545600       0.339917
                                                         0.151700       0.063270

                          3       2    2px               9.439000       0.000000
                                                         2.002000       0.000000
                                                         0.545600       0.000000
                                                         0.151700       0.134950
                          3       2    2py               9.439000       0.000000
                                                         2.002000       0.000000
                                                         0.545600       0.000000
                                                         0.151700       0.134950
                          3       2    2pz               9.439000       0.000000
                                                         2.002000       0.000000
                                                         0.545600       0.000000
                                                         0.151700       0.134950

                          4       1    1px               0.040410       0.025826
                          4       1    1py               0.040410       0.025826
                          4       1    1pz               0.040410       0.025826

                          5       1    1dx2              0.550000       0.578155
                          5       1    1dxy              0.550000       1.001394
                          5       1    1dxz              0.550000       1.001394
                          5       1    1dy2              0.550000       0.578155
                          5       1    1dyz              0.550000       1.001394
                          5       1    1dz2              0.550000       0.578155

                          6       1    1dx2              0.151000       0.060203
                          6       1    1dxy              0.151000       0.104275
                          6       1    1dxz              0.151000       0.104275
                          6       1    1dy2              0.151000       0.060203
                          6       1    1dyz              0.151000       0.104275
                          6       1    1dz2              0.151000       0.060203

     RI Auxiliary Basis Set                                    aug-cc-pvdz-rifit

       Number of orbital shell sets:                                          22
       Number of orbital shells:                                              22
       Number of primitive Cartesian functions:                               22
       Number of Cartesian basis functions:                                   86
       Number of spherical basis functions:                                   72
       Norm type:                                                              2

       Normalised Cartesian orbitals:

                        Set   Shell   Orbital            Exponent    Coefficient

                          1       1    1s               62.745300      15.888979

                          2       1    1s               13.804500       5.104176

                          3       1    1s                4.772770       2.301378

                          4       1    1s                1.513330       0.972434

                          5       1    1s                0.782697       0.593069

                          6       1    1s                0.409072       0.364552

                          7       1    1s                0.206796       0.218558

                          8       1    1s                0.073830       0.100945

                          9       1    1px              20.885100      63.640823
                          9       1    1py              20.885100      63.640823
                          9       1    1pz              20.885100      63.640823

                         10       1    1px               6.005230      13.399918
                         10       1    1py               6.005230      13.399918
                         10       1    1pz               6.005230      13.399918

                         11       1    1px               1.720600       2.808924
                         11       1    1py               1.720600       2.808924
                         11       1    1pz               1.720600       2.808924

                         12       1    1px               0.754465       1.002280
                         12       1    1py               0.754465       1.002280
                         12       1    1pz               0.754465       1.002280

                         13       1    1px               0.321667       0.345301
                         13       1    1py               0.321667       0.345301
                         13       1    1pz               0.321667       0.345301

                         14       1    1px               0.125953       0.106954
                         14       1    1py               0.125953       0.106954
                         14       1    1pz               0.125953       0.106954

                         15       1    1dx2             10.171500      95.352748
                         15       1    1dxy             10.171500     165.155804
                         15       1    1dxz             10.171500     165.155804
                         15       1    1dy2             10.171500      95.352748
                         15       1    1dyz             10.171500     165.155804
                         15       1    1dz2             10.171500      95.352748

                         16       1    1dx2              2.678440       9.230024
                         16       1    1dxy              2.678440      15.986870
                         16       1    1dxz              2.678440      15.986870
                         16       1    1dy2              2.678440       9.230024
                         16       1    1dyz              2.678440      15.986870
                         16       1    1dz2              2.678440       9.230024

                         17       1    1dx2              0.922515       1.429266
                         17       1    1dxy              0.922515       2.475561
                         17       1    1dxz              0.922515       2.475561
                         17       1    1dy2              0.922515       1.429266
                         17       1    1dyz              0.922515       2.475561
                         17       1    1dz2              0.922515       1.429266

                         18       1    1dx2              0.340842       0.250252
                         18       1    1dxy              0.340842       0.433449
                         18       1    1dxz              0.340842       0.433449
                         18       1    1dy2              0.340842       0.250252
                         18       1    1dyz              0.340842       0.433449
                         18       1    1dz2              0.340842       0.250252

                         19       1    1dx2              0.110211       0.034698
                         19       1    1dxy              0.110211       0.060099
                         19       1    1dxz              0.110211       0.060099
                         19       1    1dy2              0.110211       0.034698
                         19       1    1dyz              0.110211       0.060099
                         19       1    1dz2              0.110211       0.034698

                         20       1    1fx3              2.742930      14.254027
                         20       1    1fx2y             2.742930      31.872974
                         20       1    1fx2z             2.742930      31.872974
                         20       1    1fxy2             2.742930      31.872974
                         20       1    1fxyz             2.742930      55.205610
                         20       1    1fxz2             2.742930      31.872974
                         20       1    1fy3              2.742930      14.254027
                         20       1    1fy2z             2.742930      31.872974
                         20       1    1fyz2             2.742930      31.872974
                         20       1    1fz3              2.742930      14.254027

                         21       1    1fx3              0.895756       1.149162
                         21       1    1fx2y             0.895756       2.569605
                         21       1    1fx2z             0.895756       2.569605
                         21       1    1fxy2             0.895756       2.569605
                         21       1    1fxyz             0.895756       4.450686
                         21       1    1fxz2             0.895756       2.569605
                         21       1    1fy3              0.895756       1.149162
                         21       1    1fy2z             0.895756       2.569605
                         21       1    1fyz2             0.895756       2.569605
                         21       1    1fz3              0.895756       1.149162

                         22       1    1fx3              0.317146       0.111119
                         22       1    1fx2y             0.317146       0.248470
                         22       1    1fx2z             0.317146       0.248470
                         22       1    1fxy2             0.317146       0.248470
                         22       1    1fxyz             0.317146       0.430362
                         22       1    1fxz2             0.317146       0.248470
                         22       1    1fy3              0.317146       0.111119
                         22       1    1fy2z             0.317146       0.248470
                         22       1    1fyz2             0.317146       0.248470
                         22       1    1fz3              0.317146       0.111119

       Atomic covalent radius [Angstrom]:                                  0.770

       Atomic van der Waals radius [Angstrom]:                             1.700

     The atoms of this atomic kind are PAW atoms (GAPW):
       Hard Gaussian function radius:                                      1.512
       Rho0 radius:                                                        1.512
       Maximum GTO radius used for PAW projector construction:            24.566

     GAPW Soft Basis Set                                        aug-cc-pvdz_soft

       Number of orbital shell sets:                                           6
       Number of orbital shells:                                               9
       Number of primitive Cartesian functions:                               10
       Number of Cartesian basis functions:                                   25
       Number of spherical basis functions:                                   23
       Norm type:                                                              2

       Normalised Cartesian orbitals:

                        Set   Shell   Orbital            Exponent    Coefficient

                          1       1    1s                2.797000       0.439427
                                                         0.521500       0.006650
                                                         0.159600      -0.000574

                          1       2    2s                2.797000      -0.196168
                                                         0.521500       0.238162
                                                         0.159600       0.104468

                          1       3    3s                2.797000       0.000000
                                                         0.521500       0.000000
                                                         0.159600       0.179964

                          2       1    1s                0.046900       0.071827

                          3       1    1px               2.002000       0.711071
                                                         0.545600       0.339917
                                                         0.151700       0.063270
                          3       1    1py               2.002000       0.711071
                                                         0.545600       0.339917
                                                         0.151700       0.063270
                          3       1    1pz               2.002000       0.711071
                                                         0.545600       0.339917
                                                         0.151700       0.063270

                          3       2    2px               2.002000       0.000000
                                                         0.545600       0.000000
                                                         0.151700       0.134950
                          3       2    2py               2.002000       0.000000
                                                         0.545600       0.000000
                                                         0.151700       0.134950
                          3       2    2pz               2.002000       0.000000
                                                         0.545600       0.000000
                                                         0.151700       0.134950

                          4       1    1px               0.040410       0.025826
                          4       1    1py               0.040410       0.025826
                          4       1    1pz               0.040410       0.025826

                          5       1    1dx2              0.550000       0.578155
                          5       1    1dxy              0.550000       1.001394
                          5       1    1dxz              0.550000       1.001394
                          5       1    1dy2              0.550000       0.578155
                          5       1    1dyz              0.550000       1.001394
                          5       1    1dz2              0.550000       0.578155

                          6       1    1dx2              0.151000       0.060203
                          6       1    1dxy              0.151000       0.104275
                          6       1    1dxz              0.151000       0.104275
                          6       1    1dy2              0.151000       0.060203
                          6       1    1dyz              0.151000       0.104275
                          6       1    1dz2              0.151000       0.060203

     AE Potential information for                                            ALL

       Description:                                       All-electron potential
                                          Krack, Parrinello, PCCP 2, 2105 (2000)

       Gaussian exponent of the core charge distribution:               4.109048
       Electronic configuration (s p d ...):                           4   2   0


 MOLECULE KIND INFORMATION


 All atoms are their own molecule, skipping detailed information


 TOTAL NUMBERS AND MAXIMUM NUMBERS

  Total number of            - Atomic kinds:                                   2
                             - Atoms:                                         15
                             - Shell sets:                                    74
                             - Shells:                                       103
                             - Primitive Cartesian functions:                175
                             - Cartesian basis functions:                    247
                             - Spherical basis functions:                    233

  Maximum angular momentum of the orbital basis functions:                     2


 MODULE QUICKSTEP: ATOMIC COORDINATES IN ANGSTROM

   Atom Kind Element         X             Y             Z       Z(eff)     Mass
      1    1 H     1     10.901419     10.000000     11.495319   1.0000   1.0079
      2    1 H     1      9.098581     10.000000     11.495319   1.0000   1.0079
      3    1 H     1     10.000000     12.156504     10.144093   1.0000   1.0079
      4    1 H     1     10.000000      7.843496     10.144093   1.0000   1.0079
      5    1 H     1     11.924341     11.340999      8.504682   1.0000   1.0079
      6    1 H     1      8.075659      8.659001      8.504682   1.0000   1.0079
      7    1 H     1      8.075659     11.340999      8.504682   1.0000   1.0079
      8    1 H     1     11.924341      8.659001      8.504682   1.0000   1.0079
      9    2 C     6     10.000000     10.000000     10.873865   6.0000  12.0107
     10    2 C     6     10.000000     11.119526      9.799717   6.0000  12.0107
     11    2 C     6     10.000000      8.880474      9.799717   6.0000  12.0107
     12    2 C     6     11.235500     10.672374      9.009894   6.0000  12.0107
     13    2 C     6      8.764500      9.327626      9.009894   6.0000  12.0107
     14    2 C     6      8.764500     10.672374      9.009894   6.0000  12.0107
     15    2 C     6     11.235500      9.327626      9.009893   6.0000  12.0107



 SCF PARAMETERS         Density guess:                                   RESTART
                        --------------------------------------------------------
                        max_scf:                                             200
                        max_scf_history:                                       0
                        max_diis:                                              4
                        --------------------------------------------------------
                        eps_scf:                                        1.00E-09
                        eps_scf_history:                                0.00E+00
                        eps_diis:                                       1.00E-01
                        eps_eigval:                                     1.00E-05
                        --------------------------------------------------------
                        level_shift [a.u.]:                             0.000000
                        added MOs                                       208    0
                        --------------------------------------------------------
                        Mixing method:                            BROYDEN_MIXING
                                                charge density mixing in g-space
                        --------------------------------------------------------
                        No outer SCF

 PW_GRID| Information for grid number                                          1
 PW_GRID| Grid distributed over                                    16 processors
 PW_GRID| Real space group dimensions                                    16    1
 PW_GRID| the grid is blocked:                                                NO
 PW_GRID| Cutoff [a.u.]                                                    300.0
 PW_GRID| spherical cutoff:                                                   NO
 PW_GRID|   Bounds   1           -150     149                Points:         300
 PW_GRID|   Bounds   2           -150     149                Points:         300
 PW_GRID|   Bounds   3           -150     149                Points:         300
 PW_GRID| Volume element (a.u.^3)  0.2000E-02     Volume (a.u.^3)     53986.6767
 PW_GRID| Grid span                                                    FULLSPACE
 PW_GRID|   Distribution                         Average         Max         Min
 PW_GRID|   G-Vectors                          1687500.0     1687500     1687500
 PW_GRID|   G-Rays                                5625.0        5625        5625
 PW_GRID|   Real Space Points                  1687500.0     1710000     1620000

 PW_GRID| Information for grid number                                          2
 PW_GRID| Number of the reference grid                                         1
 PW_GRID| Grid distributed over                                    16 processors
 PW_GRID| Real space group dimensions                                    16    1
 PW_GRID| the grid is blocked:                                                NO
 PW_GRID| Cutoff [a.u.]                                                    100.0
 PW_GRID| spherical cutoff:                                                   NO
 PW_GRID|   Bounds   1            -90      89                Points:         180
 PW_GRID|   Bounds   2            -90      89                Points:         180
 PW_GRID|   Bounds   3            -90      89                Points:         180
 PW_GRID| Volume element (a.u.^3)  0.9257E-02     Volume (a.u.^3)     53986.6767
 PW_GRID| Grid span                                                    FULLSPACE
 PW_GRID|   Distribution                         Average         Max         Min
 PW_GRID|   G-Vectors                           364500.0      364680      364320
 PW_GRID|   G-Rays                                2025.0        2026        2024
 PW_GRID|   Real Space Points                   364500.0      388800      356400

 PW_GRID| Information for grid number                                          3
 PW_GRID| Number of the reference grid                                         1
 PW_GRID| Grid distributed over                                    16 processors
 PW_GRID| Real space group dimensions                                    16    1
 PW_GRID| the grid is blocked:                                                NO
 PW_GRID| Cutoff [a.u.]                                                     33.3
 PW_GRID| spherical cutoff:                                                   NO
 PW_GRID|   Bounds   1            -50      49                Points:         100
 PW_GRID|   Bounds   2            -50      49                Points:         100
 PW_GRID|   Bounds   3            -50      49                Points:         100
 PW_GRID| Volume element (a.u.^3)  0.5399E-01     Volume (a.u.^3)     53986.6767
 PW_GRID| Grid span                                                    FULLSPACE
 PW_GRID|   Distribution                         Average         Max         Min
 PW_GRID|   G-Vectors                            62500.0       62600       62400
 PW_GRID|   G-Rays                                 625.0         626         624
 PW_GRID|   Real Space Points                    62500.0       70000       60000

 PW_GRID| Information for grid number                                          4
 PW_GRID| Number of the reference grid                                         1
 PW_GRID| Grid distributed over                                    16 processors
 PW_GRID| Real space group dimensions                                    16    1
 PW_GRID| the grid is blocked:                                                NO
 PW_GRID| Cutoff [a.u.]                                                     11.1
 PW_GRID| spherical cutoff:                                                   NO
 PW_GRID|   Bounds   1            -30      29                Points:          60
 PW_GRID|   Bounds   2            -30      29                Points:          60
 PW_GRID|   Bounds   3            -30      29                Points:          60
 PW_GRID| Volume element (a.u.^3)  0.2499         Volume (a.u.^3)     53986.6767
 PW_GRID| Grid span                                                    FULLSPACE
 PW_GRID|   Distribution                         Average         Max         Min
 PW_GRID|   G-Vectors                            13500.0       13560       13440
 PW_GRID|   G-Rays                                 225.0         226         224
 PW_GRID|   Real Space Points                    13500.0       14400       10800

 POISSON| Solver                                                         WAVELET
 POISSON| Wavelet| Scaling function                                           40
 POISSON| Periodicity                                                       NONE

 RS_GRID| Information for grid number                                          1
 RS_GRID|   Bounds   1           -150     149                Points:         300
 RS_GRID|   Bounds   2           -150     149                Points:         300
 RS_GRID|   Bounds   3           -150     149                Points:         300
 RS_GRID| Real space distribution over                                  4 groups
 RS_GRID| Real space distribution along direction                              2
 RS_GRID| Border size                                                         24
 RS_GRID| Real space distribution over                                  4 groups
 RS_GRID| Real space distribution along direction                              3
 RS_GRID| Border size                                                         24
 RS_GRID|   Distribution                         Average         Max         Min
 RS_GRID|   Planes                                 123.0         123         123
 RS_GRID|   Distribution                         Average         Max         Min
 RS_GRID|   Planes                                 123.0         123         123

 RS_GRID| Information for grid number                                          2
 RS_GRID|   Bounds   1            -90      89                Points:         180
 RS_GRID|   Bounds   2            -90      89                Points:         180
 RS_GRID|   Bounds   3            -90      89                Points:         180
 RS_GRID| Real space distribution over                                  4 groups
 RS_GRID| Real space distribution along direction                              2
 RS_GRID| Border size                                                         25
 RS_GRID| Real space distribution over                                  4 groups
 RS_GRID| Real space distribution along direction                              3
 RS_GRID| Border size                                                         25
 RS_GRID|   Distribution                         Average         Max         Min
 RS_GRID|   Planes                                  95.0          95          95
 RS_GRID|   Distribution                         Average         Max         Min
 RS_GRID|   Planes                                  95.0          95          95

 RS_GRID| Information for grid number                                          3
 RS_GRID|   Bounds   1            -50      49                Points:         100
 RS_GRID|   Bounds   2            -50      49                Points:         100
 RS_GRID|   Bounds   3            -50      49                Points:         100
 RS_GRID| Real space fully replicated
 RS_GRID| Group size                                                           1

 RS_GRID| Information for grid number                                          4
 RS_GRID|   Bounds   1            -30      29                Points:          60
 RS_GRID|   Bounds   2            -30      29                Points:          60
 RS_GRID|   Bounds   3            -30      29                Points:          60
 RS_GRID| Real space fully replicated
 RS_GRID| Group size                                                           1

  HFX_INFO| Replica ID:                                                        1
  HFX_INFO| FRACTION:                                               0.2500000000
  HFX_INFO| Interaction Potential:                                       COULOMB
  HFX_INFO| EPS_SCHWARZ:                                                 1.0E-10
  HFX_INFO| EPS_SCHWARZ_FORCES                                           1.0E-08
  HFX_INFO| EPS_STORAGE_SCALING:                                         1.0E+00
  HFX_INFO| NBINS:                                                            64
  HFX_INFO| BLOCK_SIZE:                                                        1
  HFX_INFO| Number of periodic shells considered:                           NONE
  HFX_INFO| Number of periodic cells considered:                            NONE


 Number of electrons:                                                         50
 Number of occupied orbitals:                                                 25
 Number of molecular orbitals:                                               233

 Number of orbital functions:                                                233
 Number of independent orbital functions:                                    233

 Extrapolation method: initial_guess

 *** WARNING in qs_initial_guess.F:306 :: User requested to restart the    ***
 *** wavefunction from the file named: Norbornadiene-RESTART.wfn. This     ***
 *** file does not exist. Please check the existence of the file or change ***
 *** properly the value of the keyword WFN_RESTART_FILE_NAME. Calculation  ***
 *** continues using ATOMIC GUESS.                                         ***


 Atomic guess: The first density matrix is obtained in terms of atomic orbitals
               and electronic configurations assigned to each atomic kind

 Guess for atomic kind: H

 Electronic structure
    Total number of core electrons                                          0.00
    Total number of valence electrons                                       1.00
    Total number of electrons                                               1.00
    Multiplicity                                                   not specified
    S      1.00


 *******************************************************************************
                  Iteration          Convergence                     Energy [au]
 *******************************************************************************
                          1        0.880988E-02                  -0.444778274653
                          2        0.791349E-03                  -0.444877834394
                          3        0.111042E-03                  -0.444880192149
                          4        0.306660E-07                  -0.444880212296

 Energy components [Hartree]           Total Energy ::           -0.444880212296
                                        Band Energy ::           -0.232361879729
                                     Kinetic Energy ::            0.420568354334
                                   Potential Energy ::           -0.865448566630
                                      Virial (-V/T) ::            2.057807150044
                                        Core Energy ::           -0.495477856147
                                          XC Energy ::           -0.232385335983
                                     Coulomb Energy ::            0.282982979834

 Orbital energies  State     L     Occupation   Energy[a.u.]          Energy[eV]

                       1     0          1.000      -0.232362           -6.322888


 Total Electron Density at R=0:                                         0.221399

 Guess for atomic kind: C

 Electronic structure
    Total number of core electrons                                          0.00
    Total number of valence electrons                                       6.00
    Total number of electrons                                               6.00
    Multiplicity                                                   not specified
    S      2.00  2.00
    P      2.00


 *******************************************************************************
                  Iteration          Convergence                     Energy [au]
 *******************************************************************************
                          1        0.121977                     -37.400018089324
                          2        0.904329E-01                 -37.406032348656
                          3        0.638681E-03                 -37.414959418976
                          4        0.141121E-03                 -37.414959795862
                          5        0.446247E-06                 -37.414959815731

 Energy components [Hartree]           Total Energy ::          -37.414959815731
                                        Band Energy ::          -21.286259476185
                                     Kinetic Energy ::           37.482739917864
                                   Potential Energy ::          -74.897699733595
                                      Virial (-V/T) ::            1.998191698305
                                        Core Energy ::          -50.304318516063
                                          XC Energy ::           -4.741579470163
                                     Coulomb Energy ::           17.630938170495

 Orbital energies  State     L     Occupation   Energy[a.u.]          Energy[eV]

                       1     0          2.000      -9.942952         -270.561481
                       2     0          2.000      -0.501864          -13.656426

                       1     1          2.000      -0.198313           -5.396382


 Total Electron Density at R=0:                                       121.940282
 Re-scaling the density matrix to get the right number of electrons
                  # Electrons              Trace(P)               Scaling factor
                           50                50.000                        1.000


 SCF WAVEFUNCTION OPTIMIZATION

  Step     Update method      Time    Convergence         Total energy    Change
  ------------------------------------------------------------------------------

  HFX_MEM_INFO| Est. max. program size before HFX [MiB]:                    1242
  HFX_MEM_INFO| Number of cart. primitive ERI's calculated:           1828256136
  HFX_MEM_INFO| Number of sph. ERI's calculated:                       434827939
  HFX_MEM_INFO| Number of sph. ERI's stored in-core:                   434827939
  HFX_MEM_INFO| Number of sph. ERI's stored on disk:                           0
  HFX_MEM_INFO| Number of sph. ERI's calculated on the fly:                    0
  HFX_MEM_INFO| Total memory consumption ERI's RAM [MiB]:                   1321
  HFX_MEM_INFO| Whereof max-vals [MiB]:                                        1
  HFX_MEM_INFO| Total compression factor ERI's RAM:                         2.51
  HFX_MEM_INFO| Total memory consumption ERI's disk [MiB]:                     0
  HFX_MEM_INFO| Total compression factor ERI's disk:                        0.00
  HFX_MEM_INFO| Size of density/Fock matrix [MiB]:                             0
  HFX_MEM_INFO| Size of buffers [MiB]:                                         0
  HFX_MEM_INFO| Est. max. program size after HFX  [MiB]:                    1546

     1 NoMix/Diag. 0.40E+00    8.1     5.07378101      -273.2369527813 -2.73E+02
     2 Broy./Diag. 0.40E+00    3.2     0.18487210      -267.5681804765  5.67E+00
     3 Broy./Diag. 0.40E+00    3.2     0.38139373      -270.2145139504 -2.65E+00
     4 Broy./Diag. 0.40E+00    3.3     0.04836295      -271.1569458007 -9.42E-01
     5 Broy./Diag. 0.40E+00    3.3     0.04337108      -271.0052498465  1.52E-01
     6 Broy./Diag. 0.40E+00    3.4     0.01420149      -271.1596979390 -1.54E-01
     7 Broy./Diag. 0.40E+00    3.3     0.04581080      -271.1539473923  5.75E-03
     8 Broy./Diag. 0.40E+00    3.3     0.02183998      -271.1381876099  1.58E-02
     9 Broy./Diag. 0.40E+00    3.3     0.07745218      -271.1752233940 -3.70E-02
    10 Broy./Diag. 0.40E+00    3.3     0.03639312      -271.1855437336 -1.03E-02
    11 Broy./Diag. 0.40E+00    3.3     0.00824912      -271.1861391199 -5.95E-04
    12 Broy./Diag. 0.40E+00    3.3     0.00738147      -271.1879537428 -1.81E-03
    13 Broy./Diag. 0.40E+00    3.3     0.01565153      -271.1867304283  1.22E-03
    14 Broy./Diag. 0.40E+00    3.4     0.02424675      -271.1854150043  1.32E-03
    15 Broy./Diag. 0.40E+00    3.3     0.01040262      -271.1858741213 -4.59E-04
    16 Broy./Diag. 0.40E+00    3.3     0.00278875      -271.1864319974 -5.58E-04
    17 Broy./Diag. 0.40E+00    3.3     0.00085931      -271.1866277707 -1.96E-04
    18 Broy./Diag. 0.40E+00    3.3     0.00627917      -271.1867621299 -1.34E-04
    19 Broy./Diag. 0.40E+00    3.3     0.00397399      -271.1867746342 -1.25E-05
    20 Broy./Diag. 0.40E+00    3.3     0.00137204      -271.1867414214  3.32E-05
    21 Broy./Diag. 0.40E+00    3.3     0.00260288      -271.1867908511 -4.94E-05
    22 Broy./Diag. 0.40E+00    3.3     0.00216256      -271.1867791578  1.17E-05
    23 Broy./Diag. 0.40E+00    3.3     0.00098685      -271.1867389737  4.02E-05
    24 Broy./Diag. 0.40E+00    3.3     0.00024559      -271.1867370975  1.88E-06
    25 Broy./Diag. 0.40E+00    3.3     0.00068898      -271.1867294679  7.63E-06
    26 Broy./Diag. 0.40E+00    3.3     0.00061202      -271.1867076608  2.18E-05
    27 Broy./Diag. 0.40E+00    3.3     0.00041523      -271.1866995539  8.11E-06
    28 Broy./Diag. 0.40E+00    3.3     0.00025727      -271.1866849587  1.46E-05
    29 Broy./Diag. 0.40E+00    3.3     0.00003894      -271.1866845326  4.26E-07
    30 Broy./Diag. 0.40E+00    3.4     0.00024511      -271.1866863959 -1.86E-06
    31 Broy./Diag. 0.40E+00    3.4     0.00002100      -271.1866868793 -4.83E-07
    32 Broy./Diag. 0.40E+00    3.3     0.00004870      -271.1866879822 -1.10E-06
    33 Broy./Diag. 0.40E+00    3.4     0.00002951      -271.1866873563  6.26E-07
    34 Broy./Diag. 0.40E+00    3.4     0.00001931      -271.1866862593  1.10E-06
    35 Broy./Diag. 0.40E+00    3.4     0.00001973      -271.1866858348  4.24E-07
    36 Broy./Diag. 0.40E+00    3.4     0.00003601      -271.1866858779 -4.31E-08
    37 Broy./Diag. 0.40E+00    3.4     0.00003435      -271.1866859185 -4.06E-08
    38 Broy./Diag. 0.40E+00    3.3     0.00000531      -271.1866857187  2.00E-07
    39 Broy./Diag. 0.40E+00    3.4     0.00000428      -271.1866857451 -2.64E-08
    40 Broy./Diag. 0.40E+00    3.3     0.00000458      -271.1866858401 -9.50E-08
    41 Broy./Diag. 0.40E+00    3.3     0.00000646      -271.1866859245 -8.45E-08
    42 Broy./Diag. 0.40E+00    3.3     0.00000394      -271.1866859077  1.68E-08
    43 Broy./Diag. 0.40E+00    3.3     0.00000397      -271.1866858384  6.93E-08
    44 Broy./Diag. 0.40E+00    3.3     0.00000730      -271.1866858614 -2.30E-08
    45 Broy./Diag. 0.40E+00    3.3     0.00000126      -271.1866858895 -2.81E-08
    46 Broy./Diag. 0.40E+00    3.3     0.00000198      -271.1866858792  1.03E-08
    47 Broy./Diag. 0.40E+00    3.3     0.00000018      -271.1866858771  2.06E-09
    48 Broy./Diag. 0.40E+00    3.3     0.00000044      -271.1866858744  2.67E-09
    49 Broy./Diag. 0.40E+00    3.3     0.00000014      -271.1866858753 -8.85E-10
    50 Broy./Diag. 0.40E+00    3.3     0.00000066      -271.1866858770 -1.69E-09
    51 Broy./Diag. 0.40E+00    3.3     0.00000049      -271.1866858769  1.34E-10
    52 Broy./Diag. 0.40E+00    3.3     0.00000013      -271.1866858794 -2.54E-09
    53 Broy./Diag. 0.40E+00    3.3     0.00000015      -271.1866858817 -2.31E-09
    54 Broy./Diag. 0.40E+00    3.3     0.00000018      -271.1866858814  2.80E-10
    55 Broy./Diag. 0.40E+00    3.3     0.00000005      -271.1866858812  2.48E-10
    56 Broy./Diag. 0.40E+00    3.3     3.7310E-09      -271.1866858813 -6.81E-11
    57 Broy./Diag. 0.40E+00    3.3     1.1561E-09      -271.1866858815 -1.92E-10
    58 Broy./Diag. 0.40E+00    3.3     0.00000004      -271.1866858816 -1.87E-10
    59 Broy./Diag. 0.40E+00    3.3     3.6627E-09      -271.1866858817 -3.93E-11
    60 Broy./Diag. 0.40E+00    3.3     0.00000002      -271.1866858816  8.75E-11
    61 Broy./Diag. 0.40E+00    3.3     0.00000002      -271.1866858817 -1.28E-10
    62 Broy./Diag. 0.40E+00    3.3     0.00000002      -271.1866858817  1.36E-11
    63 Broy./Diag. 0.40E+00    3.3     1.5352E-09      -271.1866858817  3.08E-11
    64 Broy./Diag. 0.40E+00    3.3     0.00000001      -271.1866858817 -9.66E-13
    65 Broy./Diag. 0.40E+00    3.3     4.5748E-09      -271.1866858817  2.07E-11
    66 Broy./Diag. 0.40E+00    3.3     1.0396E-09      -271.1866858817  6.08E-12
    67 Broy./Diag. 0.40E+00    3.3     1.3375E-09      -271.1866858817 -9.49E-12
    68 Broy./Diag. 0.40E+00    3.3     3.8435E-09      -271.1866858817 -1.36E-12
    69 Broy./Diag. 0.40E+00    3.3     1.9030E-09      -271.1866858817  1.53E-12
    70 Broy./Diag. 0.40E+00    3.3     1.6086E-09      -271.1866858817  4.26E-12
    71 Broy./Diag. 0.40E+00    3.4     1.1058E-09      -271.1866858817  5.74E-12
    72 Broy./Diag. 0.40E+00    3.2     1.4520E-09      -271.1866858817 -2.27E-13
    73 Broy./Diag. 0.40E+00    3.2     8.7038E-10      -271.1866858817 -5.12E-13

  *** SCF run converged in    73 steps ***


  Electronic density on regular grids:        -36.9313692749       13.0686307251
  Core density on regular grids:               50.0000000000       -0.0000000000
  Hard and soft densities (Lebedev):         -289.5003608890     -276.4317297868
  Total Rho_soft + Rho1_hard - Rho1_soft      -50.0000003771
  Total charge density (r-space):              -0.0000003771
  Total Rho_soft + Rho0_soft (g-space):        -0.0000004521

  Overlap energy of the core charge distribution:               0.00001481356636
  Self energy of the core charge distribution:               -215.07301800431364
  Core Hamiltonian energy:                                    -47.37034764426552
  Hartree energy:                                              87.85362792844568
  Exchange-correlation energy:                                -12.11210208078408
  Hartree-Fock Exchange energy:                                -9.77653092168486

  GAPW| Exc from hard and soft atomic rho1:                   -18.75166128373821
  GAPW| local Eh = 1 center integrals:                        -55.95666868887861

  Total energy:                                              -271.18668588165286

 !-----------------------------------------------------------------------------!
                     Mulliken Population Analysis

 #  Atom  Element  Kind  Atomic population                           Net charge
       1     H        1          1.433992                             -0.433992
       2     H        1          1.433992                             -0.433992
       3     H        1          1.585414                             -0.585414
       4     H        1          1.585415                             -0.585415
       5     H        1          1.490834                             -0.490834
       6     H        1          1.490835                             -0.490835
       7     H        1          1.490833                             -0.490833
       8     H        1          1.490836                             -0.490836
       9     C        2          5.223134                              0.776866
      10     C        2          5.370650                              0.629350
      11     C        2          5.370631                              0.629369
      12     C        2          5.508352                              0.491648
      13     C        2          5.508364                              0.491636
      14     C        2          5.508354                              0.491646
      15     C        2          5.508363                              0.491637
 # Total charge                             50.000000                  0.000000

 !-----------------------------------------------------------------------------!

 !-----------------------------------------------------------------------------!
                           Hirshfeld Charges

  #Atom  Element  Kind  Ref Charge     Population                    Net charge
      1       H      1       1.000          0.520                         0.480
      2       H      1       1.000          0.520                         0.480
      3       H      1       1.000          0.517                         0.483
      4       H      1       1.000          0.517                         0.483
      5       H      1       1.000          0.502                         0.498
      6       H      1       1.000          0.502                         0.498
      7       H      1       1.000          0.502                         0.498
      8       H      1       1.000          0.502                         0.498
      9       C      2       6.000          6.908                        -0.908
     10       C      2       6.000          6.434                        -0.434
     11       C      2       6.000          6.434                        -0.434
     12       C      2       6.000          6.524                        -0.524
     13       C      2       6.000          6.524                        -0.524
     14       C      2       6.000          6.524                        -0.524
     15       C      2       6.000          6.524                        -0.524

  Total Charge                                                            0.046
 !-----------------------------------------------------------------------------!

 MOMENTS
  The electric/magnetic moments are written to file:
  Norbornadiene-MOMENTS-moments-1.dat

  
 -------------------------------------------------------------------------------
 -                                                                             -
 -                          BANDSTRUCTURE CALCULATION                          -
 -                                                                             -
 -------------------------------------------------------------------------------
  
 Number of occupied molecular orbitals (MOs) = Number of occupied bands       25
 Number of unoccupied (= virtual) MOs = Number of unoccupied bands           208
 Number of Gaussian basis functions for MOs                                  233
 K-point mesh for the density of states (DOS) and the self-energy      1   1   1
  
 -------------------------------------------------------------------------------
 -                                                                             -
 -                              GW CALCULATION                                 -
 -                                                                             -
 -------------------------------------------------------------------------------
  
 Input: Number of time/freq. points                                           30
 Input: Filter threshold for sparse tensor operations                    1.0E-08
 Apply Hedin shift                                                             F
  
 Number of auxiliary Gaussian basis functions for , , W                    688
 Cutoff radius for the truncated Coulomb operator in ^x:               2645.9 
 Cutoff radius for the truncated Coulomb operator in RI metric:            3.0 
 Regularization parameter of RI                                          0.0E+00
 Lattice sum size for V(k):                                                    3
  
 K-point mesh 1 for , , W                                            1   1   1
 K-point mesh 2 for , , W (for k-point extrapolation of W)           1   1   1
 Approximate the k-point extrapolation                                         F
 Group size for tensor operations                                             16
 
 Computed 3-center integrals (|P), execution time                        1.1 s
 Percentage of non-zero (|P)                                         100.000 %
 Max. distance between , in non-zero (|P)                              4.7 A
 Required memory if storing all 3-center integrals (|P)                   0 GB
 
 Number of i and j atoms in M_P(), N_Q():                               19
 Number of inner loop atoms for  in M_P = sum_ (|P) G_                15
 
 SCF direct band gap (eV)                                                   5.93
 Max. SCF eigval diff. (eV)                                            272392.62
 E-Range for minimax grid                                               45929.92
 Number of Pad parameters for analytic continuation:                          7
 
 Computed (i,k=0) for time point            1 / 30,    Execution time    1.3 s
 Computed (i,k=0) for time point            2 / 30,    Execution time    1.0 s
 Computed (i,k=0) for time point            3 / 30,    Execution time    1.0 s
 Computed (i,k=0) for time point            4 / 30,    Execution time    1.0 s
 Computed (i,k=0) for time point            5 / 30,    Execution time    1.0 s
 Computed (i,k=0) for time point            6 / 30,    Execution time    1.0 s
 Computed (i,k=0) for time point            7 / 30,    Execution time    1.0 s
 Computed (i,k=0) for time point            8 / 30,    Execution time    1.0 s
 Computed (i,k=0) for time point            9 / 30,    Execution time    1.0 s
 Computed (i,k=0) for time point           10 / 30,    Execution time    1.0 s
 Computed (i,k=0) for time point           11 / 30,    Execution time    1.0 s
 Computed (i,k=0) for time point           12 / 30,    Execution time    1.0 s
 Computed (i,k=0) for time point           13 / 30,    Execution time    1.0 s
 Computed (i,k=0) for time point           14 / 30,    Execution time    1.0 s
 Computed (i,k=0) for time point           15 / 30,    Execution time    1.0 s
 Computed (i,k=0) for time point           16 / 30,    Execution time    1.0 s
 Computed (i,k=0) for time point           17 / 30,    Execution time    1.0 s
 Computed (i,k=0) for time point           18 / 30,    Execution time    1.0 s
 Computed (i,k=0) for time point           19 / 30,    Execution time    1.0 s
 Computed (i,k=0) for time point           20 / 30,    Execution time    1.0 s
 Computed (i,k=0) for time point           21 / 30,    Execution time    1.0 s
 Computed (i,k=0) for time point           22 / 30,    Execution time    1.0 s
 Computed (i,k=0) for time point           23 / 30,    Execution time    1.0 s
 Computed (i,k=0) for time point           24 / 30,    Execution time    1.0 s
 Computed (i,k=0) for time point           25 / 30,    Execution time    1.0 s
 Computed (i,k=0) for time point           26 / 30,    Execution time    1.0 s
 Computed (i,k=0) for time point           27 / 30,    Execution time    1.0 s
 Computed (i,k=0) for time point           28 / 30,    Execution time    1.0 s
 Computed (i,k=0) for time point           29 / 30,    Execution time    1.0 s
 Computed (i,k=0) for time point           30 / 30,    Execution time    1.7 s
 
 Computed W(i,k) for k-point batch           1 /  1,    Execution time    4.0 s
 
 Computed ^x(k=0),                                      Execution time    1.2 s
 
 Computed ^c(i,k=0) for time point          1 / 30,    Execution time    1.7 s
 Computed ^c(i,k=0) for time point          2 / 30,    Execution time    1.7 s
 Computed ^c(i,k=0) for time point          3 / 30,    Execution time    1.7 s
 Computed ^c(i,k=0) for time point          4 / 30,    Execution time    1.7 s
 Computed ^c(i,k=0) for time point          5 / 30,    Execution time    1.7 s
 Computed ^c(i,k=0) for time point          6 / 30,    Execution time    1.7 s
 Computed ^c(i,k=0) for time point          7 / 30,    Execution time    1.7 s
 Computed ^c(i,k=0) for time point          8 / 30,    Execution time    1.7 s
 Computed ^c(i,k=0) for time point          9 / 30,    Execution time    1.7 s
 Computed ^c(i,k=0) for time point         10 / 30,    Execution time    1.7 s
 Computed ^c(i,k=0) for time point         11 / 30,    Execution time    1.7 s
 Computed ^c(i,k=0) for time point         12 / 30,    Execution time    1.7 s
 Computed ^c(i,k=0) for time point         13 / 30,    Execution time    1.7 s
 Computed ^c(i,k=0) for time point         14 / 30,    Execution time    1.7 s
 Computed ^c(i,k=0) for time point         15 / 30,    Execution time    1.7 s
 Computed ^c(i,k=0) for time point         16 / 30,    Execution time    1.7 s
 Computed ^c(i,k=0) for time point         17 / 30,    Execution time    1.7 s
 Computed ^c(i,k=0) for time point         18 / 30,    Execution time    1.7 s
 Computed ^c(i,k=0) for time point         19 / 30,    Execution time    1.7 s
 Computed ^c(i,k=0) for time point         20 / 30,    Execution time    1.7 s
 Computed ^c(i,k=0) for time point         21 / 30,    Execution time    1.7 s
 Computed ^c(i,k=0) for time point         22 / 30,    Execution time    1.7 s
 Computed ^c(i,k=0) for time point         23 / 30,    Execution time    1.7 s
 Computed ^c(i,k=0) for time point         24 / 30,    Execution time    1.7 s
 Computed ^c(i,k=0) for time point         25 / 30,    Execution time    1.7 s
 Computed ^c(i,k=0) for time point         26 / 30,    Execution time    1.7 s
 Computed ^c(i,k=0) for time point         27 / 30,    Execution time    1.7 s
 Computed ^c(i,k=0) for time point         28 / 30,    Execution time    1.7 s
 Computed ^c(i,k=0) for time point         29 / 30,    Execution time    1.7 s
 Computed ^c(i,k=0) for time point         30 / 30,    Execution time    1.7 s
 
 Sparsity of ^c(i,k=0): Percentage of skipped atom pairs:                0.0 %
 Retaining nl_3c for RTBSE

 
 SCF valence band maximum (eV):                                           -6.396
 SCF conduction band minimum (eV):                                        -0.465
 SCF indirect band gap (eV):                                               5.931
 SCF direct band gap (eV):                                                 5.931
 
[...]
 flops    95 x   176 x   167             22337920       0.0%    100.0%      0.0%     
 flops   167 x   176 x   190             22337920       0.0%    100.0%      0.0%     
 flops    95 x   160 x   190             23104000       0.0%    100.0%      0.0%     
 flops    95 x   192 x   167             24368640       0.0%    100.0%      0.0%     
 flops   167 x   192 x   190             24368640       0.0%    100.0%      0.0%     
 flops     9 x    23 x    41             34694856       0.0%    100.0%      0.0%     
 flops    23 x     9 x    41             34694856       0.0%    100.0%      0.0%     
 flops   167 x   160 x   164             35056640       0.0%    100.0%      0.0%     
 flops   167 x   176 x   167             39267712       0.0%    100.0%      0.0%     
 flops    95 x   160 x   167             40614400       0.0%    100.0%      0.0%     
 flops   167 x   160 x   190             40614400       0.0%    100.0%      0.0%     
 flops   167 x   192 x   167             42837504       0.0%    100.0%      0.0%     
 flops   167 x   160 x   167             71395840       0.0%    100.0%      0.0%     
 flops     9 x     9 x    64             81741312       0.0%    100.0%      0.0%     
 flops    23 x    23 x    41             88664632       0.0%    100.0%      0.0%     
 flops     9 x    23 x    64            162473472       0.0%    100.0%      0.0%     
 flops    23 x     9 x    64            162473472       0.0%    100.0%      0.0%     
 flops    23 x    23 x    64            415209984       0.0%    100.0%      0.0%     
 flops inhomo. stacks                           0       0.0%      0.0%      0.0%
 flops total                         1.648729E+09       0.0%    100.0%      0.0%
 flops max/rank                    140.616324E+06       0.0%    100.0%      0.0%
 matmuls inhomo. stacks                         0       0.0%      0.0%      0.0%
 matmuls total                              35168       0.0%    100.0%      0.0%
 number of processed stacks                 21152       0.0%    100.0%      0.0%
 average stack size                                     0.0       1.7       0.0
 marketing flops                   849.476096E+06
 -------------------------------------------------------------------------------
 # multiplications                             74
 max memory usage/rank               2.120671E+09
 # max total images/rank                        1
 # max 3D layers                                1
 # MPI messages exchanged                    7104
 MPI messages size (bytes):
  total size                       212.949168E+06
  min size                          18.040000E+03
  max size                         291.840000E+03
  average size                      29.975953E+03
 MPI breakdown and total messages size (bytes):
             size <=      128                   0                        0
       128 < size <=     8192                   0                        0
      8192 < size <=    32768                7008                190228656
     32768 < size <=   131072                   0                        0
    131072 < size <=  4194304                  96                 22720512
   4194304 < size <= 16777216                   0                        0
  16777216 < size                               0                        0
 -------------------------------------------------------------------------------
 -                                                                             -
 -                      DBCSR MESSAGE PASSING PERFORMANCE                      -
 -                                                                             -
 -------------------------------------------------------------------------------
 ROUTINE             CALLS      AVE VOLUME [Bytes]
 MP_Bcast               54                     12.
 MP_Allreduce          720                     12.
 MP_Alltoall          7024                  33074.
 MP_ISend             1184                  13581.
 MP_IRecv             1184                  12062.
 -------------------------------------------------------------------------------

 -------------------------------------------------------------------------------
 -                                                                             -
 -                                DBM STATISTICS                               -
 -                                                                             -
 -------------------------------------------------------------------------------
    M  x    N  x    K                                          COUNT     PERCENT
    ?  x    ?  x    ?                                       20958750      50.00%
   ??  x  ???  x   ??                                        3187800       7.60%
   ??  x   ??  x  ???                                        2104382       5.02%
  ???  x    ?  x    ?                                        2004992       4.78%
  ???  x    ?  x   ??                                        1754368       4.19%
  ???  x   ??  x    ?                                        1754368       4.19%
   ??  x   ??  x   ??                                        1699200       4.05%
  ???  x   ??  x   ??                                        1535072       3.66%
    ?  x    ?  x  ???                                        1329152       3.17%
    ?  x   ??  x  ???                                        1163008       2.77%
   ??  x    ?  x  ???                                        1163008       2.77%
 >999  x    ?  x    ?                                         558208       1.33%
 >999  x    ?  x   ??                                         488432       1.17%
 >999  x   ??  x    ?                                         488432       1.17%
 >999  x   ??  x   ??                                         427378       1.02%
    ?  x    ?  x >999                                         370048       0.88%
    ?  x   ??  x >999                                         323792       0.77%
   ??  x    ?  x >999                                         323792       0.77%
   ??  x   ??  x >999                                         283318       0.68%
 -------------------------------------------------------------------------------

 -------------------------------------------------------------------------------
 -                                                                             -
 -                                GRID STATISTICS                              -
 -                                                                             -
 -------------------------------------------------------------------------------
 LP    KERNEL             BACKEND                              COUNT     PERCENT
 1     collocate ortho    CPU                                 200244      18.13%
 1     integrate ortho    CPU                                 200244      18.13%
 2     collocate ortho    CPU                                 142672      12.92%
 2     integrate ortho    CPU                                 142672      12.92%
 0     collocate ortho    CPU                                 133348      12.07%
 0     integrate ortho    CPU                                 133348      12.07%
 3     collocate ortho    CPU                                  49728       4.50%
 3     integrate ortho    CPU                                  49728       4.50%
 2     collocate general  CPU                                  17760       1.61%
 2     integrate general  CPU                                  17760       1.61%
 4     collocate ortho    CPU                                   8288       0.75%
 4     integrate ortho    CPU                                   8288       0.75%
 0     collocate general  CPU                                    240       0.02%
 0     integrate general  CPU                                    240       0.02%
 -------------------------------------------------------------------------------

 MEMORY| Estimated peak process memory [MiB]                                2024

 -------------------------------------------------------------------------------
 ----                             MULTIGRID INFO                            ----
 -------------------------------------------------------------------------------
 count for grid        1:         116670          cutoff [a.u.]          300.00
 count for grid        2:          21558          cutoff [a.u.]          100.00
 count for grid        3:          21672          cutoff [a.u.]           33.33
 count for grid        4:          12552          cutoff [a.u.]           11.11
 total gridlevel count  :         172452

 -------------------------------------------------------------------------------
 -                                                                             -
 -                         MESSAGE PASSING PERFORMANCE                         -
 -                                                                             -
 -------------------------------------------------------------------------------

 ROUTINE             CALLS      AVE VOLUME [Bytes]
 MP_Group             5051
 MP_Bcast             5230                   7936.
 MP_Allreduce        11822                   4462.
 MP_Sync              5606
 MP_Alltoall          4907               27784836.
 MP_SendRecv          2220                 337600.
 MP_ISendRecv         4470                 178248.
 MP_Wait             19970
 MP_comm_split        2840
 MP_ISend            36317                 525523.
 MP_IRecv            35479                 537146.
 -------------------------------------------------------------------------------


 -------------------------------------------------------------------------------
 -                                                                             -
 -                           R E F E R E N C E S                               -
 -                                                                             -
 -------------------------------------------------------------------------------
 
 CP2K version 2024.3 (Development Version), the CP2K developers group (2024).
 CP2K is freely available from https://www.cp2k.org/ .
 
 M. Graml, K. Zollner, D. Hernangmez-Prez, P. E. Faria Junior, J. Wilhelm.
 J. Chem. Theory Comput. 20, 2202-2208 (2024).
 Low-scaling GW algorithm applied to twisted transition-metal dichalcogenide 
 heterobilayers.
 https://doi.org/10.1021/acs.jctc.3c01230

 T. D. Kuehne, M. Iannuzzi, M. Del Ben, V. V. Rybkin, P. Seewald, F. Stein, T. 
 Laino, R. Z. Khaliullin, O. Schuett, F. Schiffmann, D. Golze, J. Wilhelm, S. 
 Chulkov, M. H. Bani-Hashemian, V. Weber, U. Borstnik, M. Taillefumier, A. S. 
 Jakobovits, A. Lazzaro, H. Pabst, T. Mueller, R. Schade, M. Guidon, S. 
 Andermatt, N. Holmberg, G. K. Schenter, A. Hehn, A. Bussy, F. Belleflamme, G. 
 Tabacchi, A. Gloess, M. Lass, I. Bethune, C. J. Mundy, C. Plessl, M. Watkins, 
 J. VandeVondele, M. Krack, J. Hutter.
 J. Chem. Phys. 152, 194103 (2020).
 CP2K: An electronic structure and molecular dynamics software package - 
 Quickstep: Efficient and accurate electronic structure calculations.
 https://doi.org/10.1063/5.0007045

 O. Schuett, P. Messmer, J. Hutter, J. VandeVondele.
 Electronic Structure Calculations on Graphics Processing Units, 173-190 (2016).
 GPU-Accelerated Sparse Matrix-Matrix Multiplication for Linear Scaling Density 
 Functional Theory.
 https://doi.org/10.1002/9781118670712.ch8

 A. Heinecke, G. Henry, M. Hutchinson, H. Pabst.
 Proceedings of Intl. Supercomputing Conference, 981-991 (2016).
 LIBXSMM: Accelerating Small Matrix Multiplications by Runtime Code Generation.
 https://doi.org/10.1109/SC.2016.83

 J. Hutter, M. Iannuzzi, F. Schiffmann, J. VandeVondele.
 WIREs Comput Mol Sci. 4, 15-25 (2014).
 CP2K: atomistic simulations of condensed matter systems.
 https://doi.org/10.1002/wcms.1159

 U. Borstnik, J. VandeVondele, V. Weber, J. Hutter.
 Parallel Comput. 40, 47-58 (2014).
 Sparse matrix multiplication: The distributed block-compressed sparse row 
 library.
 https://doi.org/10.1016/j.parco.2014.03.012

 M. Guidon, J. Hutter, J. VandeVondele.
 J. Chem. Theory Comput. 5, 3010-3021 (2009).
 Robust Periodic Hartree-Fock Exchange for Large-Scale Simulations Using 
 Gaussian Basis Sets.
 https://doi.org/10.1021/ct900494g

 M. Guidon, F. Schiffmann, J. Hutter, J. VandeVondele.
 J. Chem. Phys. 128, 214104 (2008).
 Ab initio molecular dynamics using hybrid density functionals.
 https://doi.org/10.1063/1.2931945

 L. Genovese, T. Deutsch, S. Goedecker.
 J. Chem. Phys. 127, 054704 (2007).
 Efficient and accurate three-dimensional Poisson solver for surface problems.
 https://doi.org/10.1063/1.2754685

 L. Genovese, T. Deutsch, A. Neelov, S. Goedecker, G. Beylkin.
 J. Chem. Phys. 125, 074105 (2006).
 Efficient solution of Poisson's equation with free boundary conditions.
 https://doi.org/10.1063/1.2335442

 M. Frigo, S. G. Johnson.
 Proc. IEEE 93, 216-231 (2005).
 The design and implementation of FFTW3.
 https://doi.org/10.1109/JPROC.2004.840301

 M. Krack, M. Parrinello.
 Phys. Chem. Chem. Phys. 2, 2105-2112 (2000).
 All-electron ab-initio molecular dynamics.
 https://doi.org/10.1039/b001167n

 G. Lippert, J. Hutter, M. Parrinello.
 Theor. Chem. Acc. 103, 124-140 (1999).
 The Gaussian and augmented-plane-wave density functional method for ab initio 
 molecular dynamics simulations.
 https://doi.org/10.1007/s002140050523

 J. P. Perdew, K. Burke, M. Ernzerhof.
 Phys. Rev. Lett. 77, 3865-3868 (1996).
 Generalized gradient approximation made simple.
 https://doi.org/10.1103/PhysRevLett.77.3865


 -------------------------------------------------------------------------------
 -                                                                             -
 -                                T I M I N G                                  -
 -                                                                             -
 -------------------------------------------------------------------------------
 SUBROUTINE                       CALLS  ASD         SELF TIME        TOTAL TIME
                                MAXIMUM       AVERAGE  MAXIMUM  AVERAGE  MAXIMUM
 CP2K                                 1  1.0    0.024    0.027  367.430  367.432
 run_propagation_bse                  1  2.0    0.002    0.008  366.671  366.675
 qs_energies                          1  3.0    0.001    0.001  341.258  341.274
 scf_env_do_scf                       1  4.0    0.000    0.000  248.049  248.053
 scf_env_do_scf_inner_loop           73  5.0    0.002    0.005  248.049  248.053
 qs_ks_build_kohn_sham_matrix        74  8.0    0.011    0.013  199.732  199.737
 qs_ks_update_qs_env                 73  6.0    0.000    0.001  198.213  198.219
 rebuild_ks_matrix                   73  7.0    0.000    0.000  198.209  198.214
 fft_wrap_pw1pw2                   1545 11.0    0.034    0.044  125.844  132.838
 fft_wrap_pw1pw2_300               1101 12.1    5.490    5.895  122.224  129.139
 fft3d_ps                          1545 13.0   51.422   52.684   98.036  105.387
 qs_energies_properties               1  4.0    0.000    0.000   92.330   92.345
 post_scf_bandstructure               1  5.0    0.000    0.000   92.330   92.345
 gw                                   1  6.0    0.000    0.000   92.272   92.273
 gw_calc_large_cell_Gamma             1  7.0    0.000    0.000   86.218   86.782
 qs_vxc_create                       74  9.0    0.001    0.001   79.959   79.959
 xc_vxc_pw_create                    73 10.0    1.112    1.184   79.958   79.958
 xc_pw_derive                       438 12.0    0.006    0.007   56.107   62.741
 pw_poisson_solve                    74  9.0    1.714    1.808   61.342   61.377
 dbt_total                          871  9.0    0.006    0.007   53.733   53.734
 compute_3c_integrals               153  9.6    0.003    0.003   50.411   50.415
 get_Sigma_c                          1  8.0    0.001    0.002   50.018   50.019
 dbt_contract                       414  8.9    0.022    0.023   49.221   49.430
 build_3c_integrals                 158 10.5   29.154   42.460   32.753   45.425
 xc_rho_set_and_dset_create          73 11.0    0.873    0.971   40.812   44.701
 dbt_tas_multiply                   828 11.4    0.002    0.002   44.275   44.371
 xc_pw_divergence                    73 11.0    0.003    0.004   37.529   44.248
 dbt_tas_total                      828 12.4    0.113    0.127   44.072   44.072
 ps_wavelet_solve                    74 10.0   30.286   30.878   34.307   34.360
 contract_to_Sigma                   61  9.0    0.001    0.001   33.610   33.624
 mp_sync                           5606 12.0   24.683   32.195   24.683   32.195
 get_mat_chi_Gamma_tau                1  8.0    0.001    0.002   30.377   30.943
 mp_alltoall_z22v                  1545 15.0   21.849   28.985   21.849   28.985
 qs_rho_update_rho_low               74  6.0    0.001    0.001   28.763   28.765
 calculate_rho_elec                  74  7.0    0.880    0.893   28.669   28.672
 yz_to_x                            737 13.8    8.929    9.414   21.431   28.126
 dbt_tas_dbm                        828 13.4    0.003    0.003   27.932   27.933
 dbm_multiply                       828 15.4   24.005   27.526   24.005   27.526
 x_to_yz                            808 14.1   15.815   16.246   25.162   25.540
 density_rs2pw                       74  8.0    0.004    0.004   22.975   23.256
 get_sigma                           57  4.0    0.002    0.002   23.233   23.233
 update_effective_ham                18  3.0    0.001    0.001   22.662   22.799
 gspace_mixing                       72  6.0    0.857    0.869   20.447   20.447
 compute_3c_and_contract_W           31  9.0    0.000    0.000   17.049   17.062
 sum_up_and_integrate                74  9.0    0.001    0.002   16.511   16.524
 integrate_v_rspace                  74 10.0    0.002    0.002   16.070   16.097
 potential_pw2rs                     74 11.0    0.046    0.050   15.092   15.118
 xc_functional_eval                 365 11.3    0.001    0.002   11.030   14.737
 pbe_lda_eval                       365 12.3   11.029   14.736   11.029   14.736
 hfx_ks_matrix                       74  9.0    0.003    0.003   14.231   14.260
 integrate_four_center               74 10.0    1.586    1.758   14.219   14.247
 prepare_gapw_den                    74  9.0    0.001    0.001   12.569   12.711
 put_rho0_on_grid                    74 10.0    0.905    0.976   12.271   12.413
 broyden_mixing                      72  7.0   11.328   11.530   11.494   11.668
 integrate_four_center_main          74 11.0    0.048    0.078   11.303   11.571
 integrate_four_center_bin         5952 12.0   11.255   11.517   11.255   11.517
 dbt_tas_mm_2                       296 14.4    0.001    0.001    9.726    9.727
 pw_scatter_p                       808 13.1    9.351    9.530    9.351    9.530
 pw_gather_p                        737 12.8    8.285    8.816    8.285    8.816
 dbt_copy                           685  9.9    0.007    0.008    7.402    8.753
 dbt_tas_mm_3N                      176 13.3    0.000    0.000    6.908    8.561
 transfer_pw2rs                     371 11.6    0.005    0.005    8.187    8.209
 mp_waitany                        8920 12.5    7.327    7.604    7.327    7.604
 pw_derive                          660 12.3    7.120    7.370    7.120    7.370
 -------------------------------------------------------------------------------

 The number of warnings for this run is : 4
 
 -------------------------------------------------------------------------------
  **** **** ******  **  PROGRAM ENDED AT                 2024-12-02 16:00:01.031
 ***** ** ***  *** **   PROGRAM RAN ON                              i01r04c01s03
 **    ****   ******    PROGRAM RAN BY                                   di75qec
 ***** **    ** ** **   PROGRAM PROCESS ID                               2365383
  **** **  *******  **  PROGRAM STOPPED IN /hppfs/scratch/09/di75qec/Norbornadie
                                           ne_scf.4142583
